 Entering Link 1 = C:\G09W\l1.exe PID=      9736.
  
 Copyright (c) 1988,1990,1992,1993,1995,1998,2003,2009, Gaussian, Inc.
                  All Rights Reserved.
  
 This is part of the Gaussian(R) 09 program.  It is based on
 the Gaussian(R) 03 system (copyright 2003, Gaussian, Inc.),
 the Gaussian(R) 98 system (copyright 1998, Gaussian, Inc.),
 the Gaussian(R) 94 system (copyright 1995, Gaussian, Inc.),
 the Gaussian 92(TM) system (copyright 1992, Gaussian, Inc.),
 the Gaussian 90(TM) system (copyright 1990, Gaussian, Inc.),
 the Gaussian 88(TM) system (copyright 1988, Gaussian, Inc.),
 the Gaussian 86(TM) system (copyright 1986, Carnegie Mellon
 University), and the Gaussian 82(TM) system (copyright 1983,
 Carnegie Mellon University). Gaussian is a federally registered
 trademark of Gaussian, Inc.
  
 This software contains proprietary and confidential information,
 including trade secrets, belonging to Gaussian, Inc.
  
 This software is provided under written license and may be
 used, copied, transmitted, or stored only in accord with that
 written license.
  
 The following legend is applicable only to US Government
 contracts under FAR:
  
                    RESTRICTED RIGHTS LEGEND
  
 Use, reproduction and disclosure by the US Government is
 subject to restrictions as set forth in subparagraphs (a)
 and (c) of the Commercial Computer Software - Restricted
 Rights clause in FAR 52.227-19.
  
 Gaussian, Inc.
 340 Quinnipiac St., Bldg. 40, Wallingford CT 06492
  
  
 ---------------------------------------------------------------
 Warning -- This program may not be used in any manner that
 competes with the business of Gaussian, Inc. or will provide
 assistance to any competitor of Gaussian, Inc.  The licensee
 of this program is prohibited from giving any competitor of
 Gaussian, Inc. access to this program.  By using this program,
 the user acknowledges that Gaussian, Inc. is engaged in the
 business of creating and licensing software in the field of
 computational chemistry and represents and warrants to the
 licensee that it is not a competitor of Gaussian, Inc. and that
 it will not use this program in any manner prohibited above.
 ---------------------------------------------------------------
  

 Cite this work as:
 Gaussian 09, Revision A.02,
 M. J. Frisch, G. W. Trucks, H. B. Schlegel, G. E. Scuseria, 
 M. A. Robb, J. R. Cheeseman, G. Scalmani, V. Barone, B. Mennucci, 
 G. A. Petersson, H. Nakatsuji, M. Caricato, X. Li, H. P. Hratchian, 
 A. F. Izmaylov, J. Bloino, G. Zheng, J. L. Sonnenberg, M. Hada, 
 M. Ehara, K. Toyota, R. Fukuda, J. Hasegawa, M. Ishida, T. Nakajima, 
 Y. Honda, O. Kitao, H. Nakai, T. Vreven, J. A. Montgomery, Jr., 
 J. E. Peralta, F. Ogliaro, M. Bearpark, J. J. Heyd, E. Brothers, 
 K. N. Kudin, V. N. Staroverov, R. Kobayashi, J. Normand, 
 K. Raghavachari, A. Rendell, J. C. Burant, S. S. Iyengar, J. Tomasi, 
 M. Cossi, N. Rega, J. M. Millam, M. Klene, J. E. Knox, J. B. Cross, 
 V. Bakken, C. Adamo, J. Jaramillo, R. Gomperts, R. E. Stratmann, 
 O. Yazyev, A. J. Austin, R. Cammi, C. Pomelli, J. W. Ochterski, 
 R. L. Martin, K. Morokuma, V. G. Zakrzewski, G. A. Voth, 
 P. Salvador, J. J. Dannenberg, S. Dapprich, A. D. Daniels, 
 O. Farkas, J. B. Foresman, J. V. Ortiz, J. Cioslowski, 
 and D. J. Fox, Gaussian, Inc., Wallingford CT, 2009.
 
 ******************************************
 Gaussian 09:  IA32W-G09RevA.02 11-Jun-2009
                27-Nov-2024 
 ******************************************
 %chk=C:\G09W\Midterm1\2BAopt.chk
 ---------------------------
 # opt pm6 geom=connectivity
 ---------------------------
 1/14=-1,18=20,19=15,26=1,38=1,57=2/1,3;
 2/9=110,12=2,17=6,18=5,40=1/2;
 3/5=2,16=1,25=1,41=3900000,71=1/1,2,3;
 4/35=1/1;
 5/5=2,35=1,38=5/2;
 6/7=2,8=2,9=2,10=2,28=1/1;
 7//1,2,3,16;
 1/14=-1,18=20,19=15/3(2);
 2/9=110/2;
 99//99;
 2/9=110/2;
 3/5=2,16=1,25=1,41=3900000,71=1,135=20/1,2,3;
 4/5=5,16=3,35=1/1;
 5/5=2,35=1,38=5/2;
 7//1,2,3,16;
 1/14=-1,18=20,19=15/3(-5);
 2/9=110/2;
 6/7=2,8=2,9=2,10=2,19=2,28=1/1;
 99/9=1/99;
 -------------------
 Title Card Required
 -------------------
 Symbolic Z-matrix:
 Charge =  0 Multiplicity = 1
 C                    -2.01349  -2.81441   0.00168 
 C                    -0.61833  -2.81441   0.00168 
 C                     0.0792   -1.60666   0.00168 
 C                    -0.61845  -0.39815   0.00048 
 C                    -2.01327  -0.39823   0. 
 C                    -2.71088  -1.60644   0.001 
 H                    -2.56325  -3.76673   0.00213 
 H                    -0.06883  -3.76693   0.00299 
 H                    -0.06825   0.55399   0.00042 
 H                    -2.5634    0.55405  -0.00095 
 H                    -3.81048  -1.60625   0.00082 
 C                     1.6192   -1.60655   0.00257 
 C                     2.38666  -2.94169   0.00345 
 H                     1.84806  -3.86625   0.00345 
 C                     3.74183  -2.94965   0.00424 
 O                     4.469    -1.71834   0.00421 
 H                     5.41116  -1.90258   0.00488 
 O                     2.25264  -0.5192    0.00257 
 C                     4.50131  -4.28935   0.00507 
 H                     5.11619  -4.35131  -0.86841 
 H                     5.11581  -4.35043   0.87889 
 H                     3.79961  -5.09713   0.00532 
 

 GradGradGradGradGradGradGradGradGradGradGradGradGradGradGradGradGradGrad
 Berny optimization.
 Initialization pass.
                           ----------------------------
                           !    Initial Parameters    !
                           ! (Angstroms and Degrees)  !
 --------------------------                            --------------------------
 ! Name  Definition              Value          Derivative Info.                !
 --------------------------------------------------------------------------------
 ! R1    R(1,2)                  1.3952         estimate D2E/DX2                !
 ! R2    R(1,6)                  1.3948         estimate D2E/DX2                !
 ! R3    R(1,7)                  1.0996         estimate D2E/DX2                !
 ! R4    R(2,3)                  1.3947         estimate D2E/DX2                !
 ! R5    R(2,8)                  1.0997         estimate D2E/DX2                !
 ! R6    R(3,4)                  1.3954         estimate D2E/DX2                !
 ! R7    R(3,12)                 1.54           estimate D2E/DX2                !
 ! R8    R(4,5)                  1.3948         estimate D2E/DX2                !
 ! R9    R(4,9)                  1.0997         estimate D2E/DX2                !
 ! R10   R(5,6)                  1.3951         estimate D2E/DX2                !
 ! R11   R(5,10)                 1.0998         estimate D2E/DX2                !
 ! R12   R(6,11)                 1.0996         estimate D2E/DX2                !
 ! R13   R(12,13)                1.54           estimate D2E/DX2                !
 ! R14   R(12,18)                1.2584         estimate D2E/DX2                !
 ! R15   R(13,14)                1.07           estimate D2E/DX2                !
 ! R16   R(13,15)                1.3552         estimate D2E/DX2                !
 ! R17   R(15,16)                1.43           estimate D2E/DX2                !
 ! R18   R(15,19)                1.54           estimate D2E/DX2                !
 ! R19   R(16,17)                0.96           estimate D2E/DX2                !
 ! R20   R(19,20)                1.07           estimate D2E/DX2                !
 ! R21   R(19,21)                1.07           estimate D2E/DX2                !
 ! R22   R(19,22)                1.07           estimate D2E/DX2                !
 ! A1    A(2,1,6)              119.9985         estimate D2E/DX2                !
 ! A2    A(2,1,7)              119.9972         estimate D2E/DX2                !
 ! A3    A(6,1,7)              120.0043         estimate D2E/DX2                !
 ! A4    A(1,2,3)              120.0086         estimate D2E/DX2                !
 ! A5    A(1,2,8)              119.9808         estimate D2E/DX2                !
 ! A6    A(3,2,8)              120.0106         estimate D2E/DX2                !
 ! A7    A(2,3,4)              119.9942         estimate D2E/DX2                !
 ! A8    A(2,3,12)             120.0128         estimate D2E/DX2                !
 ! A9    A(4,3,12)             119.993          estimate D2E/DX2                !
 ! A10   A(3,4,5)              119.994          estimate D2E/DX2                !
 ! A11   A(3,4,9)              119.9811         estimate D2E/DX2                !
 ! A12   A(5,4,9)              120.0249         estimate D2E/DX2                !
 ! A13   A(4,5,6)              120.0047         estimate D2E/DX2                !
 ! A14   A(4,5,10)             120.0113         estimate D2E/DX2                !
 ! A15   A(6,5,10)             119.984          estimate D2E/DX2                !
 ! A16   A(1,6,5)              120.0            estimate D2E/DX2                !
 ! A17   A(1,6,11)             120.008          estimate D2E/DX2                !
 ! A18   A(5,6,11)             119.992          estimate D2E/DX2                !
 ! A19   A(3,12,13)            119.8865         estimate D2E/DX2                !
 ! A20   A(3,12,18)            120.2269         estimate D2E/DX2                !
 ! A21   A(13,12,18)           119.8865         estimate D2E/DX2                !
 ! A22   A(12,13,14)           119.8865         estimate D2E/DX2                !
 ! A23   A(12,13,15)           120.2269         estimate D2E/DX2                !
 ! A24   A(14,13,15)           119.8865         estimate D2E/DX2                !
 ! A25   A(13,15,16)           120.2284         estimate D2E/DX2                !
 ! A26   A(13,15,19)           119.8851         estimate D2E/DX2                !
 ! A27   A(16,15,19)           119.8865         estimate D2E/DX2                !
 ! A28   A(15,16,17)           109.5            estimate D2E/DX2                !
 ! A29   A(15,19,20)           109.4712         estimate D2E/DX2                !
 ! A30   A(15,19,21)           109.4712         estimate D2E/DX2                !
 ! A31   A(15,19,22)           109.4712         estimate D2E/DX2                !
 ! A32   A(20,19,21)           109.4713         estimate D2E/DX2                !
 ! A33   A(20,19,22)           109.4712         estimate D2E/DX2                !
 ! A34   A(21,19,22)           109.4712         estimate D2E/DX2                !
 ! D1    D(6,1,2,3)              0.0323         estimate D2E/DX2                !
 ! D2    D(6,1,2,8)            179.9532         estimate D2E/DX2                !
 ! D3    D(7,1,2,3)           -179.9729         estimate D2E/DX2                !
 ! D4    D(7,1,2,8)             -0.052          estimate D2E/DX2                !
 ! D5    D(2,1,6,5)              0.0149         estimate D2E/DX2                !
 ! D6    D(2,1,6,11)           179.9892         estimate D2E/DX2                !
 ! D7    D(7,1,6,5)           -179.9798         estimate D2E/DX2                !
 ! D8    D(7,1,6,11)            -0.0056         estimate D2E/DX2                !
 ! D9    D(1,2,3,4)             -0.0568         estimate D2E/DX2                !
 ! D10   D(1,2,3,12)           179.9619         estimate D2E/DX2                !
 ! D11   D(8,2,3,4)           -179.9777         estimate D2E/DX2                !
 ! D12   D(8,2,3,12)             0.041          estimate D2E/DX2                !
 ! D13   D(2,3,4,5)              0.0341         estimate D2E/DX2                !
 ! D14   D(2,3,4,9)           -179.9964         estimate D2E/DX2                !
 ! D15   D(12,3,4,5)          -179.9846         estimate D2E/DX2                !
 ! D16   D(12,3,4,9)            -0.0151         estimate D2E/DX2                !
 ! D17   D(2,3,12,13)            0.0            estimate D2E/DX2                !
 ! D18   D(2,3,12,18)          180.0            estimate D2E/DX2                !
 ! D19   D(4,3,12,13)         -179.9813         estimate D2E/DX2                !
 ! D20   D(4,3,12,18)            0.0187         estimate D2E/DX2                !
 ! D21   D(3,4,5,6)              0.0131         estimate D2E/DX2                !
 ! D22   D(3,4,5,10)          -179.9995         estimate D2E/DX2                !
 ! D23   D(9,4,5,6)           -179.9563         estimate D2E/DX2                !
 ! D24   D(9,4,5,10)             0.0311         estimate D2E/DX2                !
 ! D25   D(4,5,6,1)             -0.0376         estimate D2E/DX2                !
 ! D26   D(4,5,6,11)           179.9881         estimate D2E/DX2                !
 ! D27   D(10,5,6,1)           179.975          estimate D2E/DX2                !
 ! D28   D(10,5,6,11)            0.0007         estimate D2E/DX2                !
 ! D29   D(3,12,13,14)           0.0            estimate D2E/DX2                !
 ! D30   D(3,12,13,15)         180.0            estimate D2E/DX2                !
 ! D31   D(18,12,13,14)        180.0            estimate D2E/DX2                !
 ! D32   D(18,12,13,15)          0.0            estimate D2E/DX2                !
 ! D33   D(12,13,15,16)         -0.0017         estimate D2E/DX2                !
 ! D34   D(12,13,15,19)       -179.998          estimate D2E/DX2                !
 ! D35   D(14,13,15,16)        179.9983         estimate D2E/DX2                !
 ! D36   D(14,13,15,19)          0.002          estimate D2E/DX2                !
 ! D37   D(13,15,16,17)        179.9958         estimate D2E/DX2                !
 ! D38   D(19,15,16,17)         -0.0079         estimate D2E/DX2                !
 ! D39   D(13,15,19,20)        119.9765         estimate D2E/DX2                !
 ! D40   D(13,15,19,21)       -120.0235         estimate D2E/DX2                !
 ! D41   D(13,15,19,22)         -0.0235         estimate D2E/DX2                !
 ! D42   D(16,15,19,20)        -60.0198         estimate D2E/DX2                !
 ! D43   D(16,15,19,21)         59.9802         estimate D2E/DX2                !
 ! D44   D(16,15,19,22)        179.9802         estimate D2E/DX2                !
 --------------------------------------------------------------------------------
 Trust Radius=3.00D-01 FncErr=1.00D-07 GrdErr=1.00D-07
 Number of steps in this run= 110 maximum allowed number of steps= 132.
 GradGradGradGradGradGradGradGradGradGradGradGradGradGradGradGradGradGrad

                          Input orientation:                          
 ---------------------------------------------------------------------
 Center     Atomic      Atomic             Coordinates (Angstroms)
 Number     Number       Type             X           Y           Z
 ---------------------------------------------------------------------
      1          6           0       -2.013493   -2.814412    0.001678
      2          6           0       -0.618333   -2.814412    0.001678
      3          6           0        0.079205   -1.606661    0.001678
      4          6           0       -0.618449   -0.398152    0.000479
      5          6           0       -2.013274   -0.398230    0.000000
      6          6           0       -2.710875   -1.606436    0.000996
      7          1           0       -2.563252   -3.766729    0.002128
      8          1           0       -0.068825   -3.766925    0.002993
      9          1           0       -0.068249    0.553991    0.000420
     10          1           0       -2.563396    0.554051   -0.000953
     11          1           0       -3.810479   -1.606253    0.000816
     12          6           0        1.619205   -1.606549    0.002566
     13          6           0        2.386658   -2.941695    0.003453
     14          1           0        1.848059   -3.866255    0.003450
     15          6           0        3.741835   -2.949648    0.004237
     16          8           0        4.469004   -1.718338    0.004209
     17          1           0        5.411159   -1.902577    0.004885
     18          8           0        2.252637   -0.519197    0.002569
     19          6           0        4.501309   -4.289349    0.005074
     20          1           0        5.116195   -4.351309   -0.868411
     21          1           0        5.115810   -4.350434    0.878892
     22          1           0        3.799609   -5.097134    0.005324
 ---------------------------------------------------------------------
                    Distance matrix (angstroms):
                    1          2          3          4          5
     1  C    0.000000
     2  C    1.395160   0.000000
     3  C    2.416205   1.394712   0.000000
     4  C    2.790065   2.416260   1.395427   0.000000
     5  C    2.416183   2.789946   2.416356   1.394825   0.000000
     6  C    1.394829   2.416183   2.790080   2.416236   1.395138
     7  H    1.099610   2.165553   3.412986   3.889675   3.413102
     8  H    2.165414   1.099655   2.165330   3.413316   3.889601
     9  H    3.889745   3.413024   2.165678   1.099680   2.165606
    10  H    3.413055   3.889707   3.413506   2.165528   1.099761
    11  H    2.165365   3.413128   3.889684   3.412999   2.165471
    12  C    3.828241   2.542737   1.540000   2.543093   3.828178
    13  C    4.401993   3.007687   2.665832   3.937041   5.082188
    14  H    4.002245   2.681318   2.869601   4.255750   5.190097
    15  C    5.756917   4.362266   3.901087   5.051952   6.295318
    16  O    6.574508   5.204074   4.391221   5.255957   6.615333
    17  H    7.480435   6.098051   5.340160   6.214458   7.575308
    18  O    4.844366   3.675661   2.430306   2.873638   4.267627
    19  C    6.679678   5.327869   5.172217   6.430658   7.588190
    20  H    7.345172   6.000326   5.801846   7.019156   8.198188
    21  H    7.345464   6.000772   5.802171   7.019535   8.198550
    22  H    6.245237   4.972830   5.101452   6.449782   7.474579
                    6          7          8          9         10
     6  C    0.000000
     7  H    2.165331   0.000000
     8  H    3.412938   2.494427   0.000000
     9  H    3.413344   4.989355   4.320917   0.000000
    10  H    2.165516   4.320781   4.989362   2.495147   0.000000
    11  H    1.099604   2.494641   4.320704   4.320988   2.494420
    12  C    4.330080   4.707369   2.741654   2.741430   4.707691
    13  C    5.269513   5.018197   2.590445   4.271580   6.059975
    14  H    5.088288   4.412434   1.919456   4.817761   6.245003
    15  C    6.591031   6.357810   3.897316   5.176122   7.213312
    16  O    7.180752   7.324517   4.978816   5.074462   7.390429
    17  H    8.127432   8.189402   5.788439   6.004886   8.344375
    18  O    5.081195   5.808550   3.992108   2.557001   4.934172
    19  C    7.695040   7.083867   4.599898   6.658740   8.565548
    20  H    8.339857   7.750708   5.290112   7.189944   9.153751
    21  H    8.340098   7.750963   5.290381   7.190241   9.154142
    22  H    7.387245   6.500460   4.090751   6.848033   8.510215
                   11         12         13         14         15
    11  H    0.000000
    12  C    5.429684   0.000000
    13  C    6.339395   1.540000   0.000000
    14  H    6.093166   2.271265   1.070000   0.000000
    15  C    7.670865   2.511867   1.355200   2.103938   0.000000
    16  O    8.280243   2.851992   2.415112   3.388643   1.430000
    17  H    9.226399   3.803493   3.198026   4.068379   1.970533
    18  O    6.159795   1.258400   2.426202   3.371420   2.850404
    19  C    8.734120   3.937505   2.507573   2.686772   1.540000
    20  H    9.379573   4.530038   3.193357   3.417035   2.148263
    21  H    9.379776   4.530243   3.193620   3.417459   2.148263
    22  H    8.372557   4.115623   2.577275   2.307295   2.148263
                   16         17         18         19         20
    16  O    0.000000
    17  H    0.960000   0.000000
    18  O    2.519965   3.448189   0.000000
    19  C    2.571214   2.554311   4.389826   0.000000
    20  H    2.848308   2.616474   4.862473   1.070000   0.000000
    21  H    2.848045   2.615936   4.862518   1.070000   1.747303
    22  H    3.444467   3.578028   4.832249   1.070000   1.747303
                   21         22
    21  H    0.000000
    22  H    1.747303   0.000000
 Stoichiometry    C10H10O2
 Framework group  C1[X(C10H10O2)]
 Deg. of freedom    60
 Full point group                 C1      NOp   1
 Largest Abelian subgroup         C1      NOp   1
 Largest concise Abelian subgroup C1      NOp   1
                         Standard orientation:                         
 ---------------------------------------------------------------------
 Center     Atomic      Atomic             Coordinates (Angstroms)
 Number     Number       Type             X           Y           Z
 ---------------------------------------------------------------------
      1          6           0        2.804855    1.507416   -0.000820
      2          6           0        1.450434    1.172729   -0.000820
      3          6           0        1.062993   -0.167089   -0.000820
      4          6           0        2.030187   -1.172948   -0.002019
      5          6           0        3.384264   -0.838265   -0.002498
      6          6           0        3.771656    0.502009   -0.001502
      7          1           0        3.110108    2.563807   -0.000370
      8          1           0        0.688472    1.965606    0.000495
      9          1           0        1.724463   -2.229276   -0.002078
     10          1           0        4.146766   -1.630770   -0.003451
     11          1           0        4.839195    0.765617   -0.001682
     12          6           0       -0.432011   -0.536630    0.000068
     13          6           0       -1.497345    0.575424    0.000955
     14          1           0       -1.196267    1.602191    0.000953
     15          6           0       -2.814858    0.258049    0.001739
     16          8           0       -3.225413   -1.111748    0.001711
     17          1           0       -4.184254   -1.158903    0.002387
     18          8           0       -0.786101   -1.744186    0.000071
     19          6           0       -3.873538    1.376439    0.002577
     20          1           0       -4.485332    1.289085   -0.870909
     21          1           0       -4.484749    1.288328    0.876394
     22          1           0       -3.386108    2.328969    0.002827
 ---------------------------------------------------------------------
 Rotational constants (GHZ):      2.4766787      0.4600984      0.3889346
 Standard basis: VSTO-6G (5D, 7F)
 There are    58 symmetry adapted basis functions of A   symmetry.
 Integral buffers will be    262144 words long.
 Regular integral format.
 Two-electron integral symmetry is turned off.
    58 basis functions,   348 primitive gaussians,    58 cartesian basis functions
    31 alpha electrons       31 beta electrons
       nuclear repulsion energy       362.9791171221 Hartrees.
 Do NDO integrals.
 One-electron integrals computed using PRISM.
 NBasis=    58 RedAO= F  NBF=    58
 NBsUse=    58 1.00D-04 NBFU=    58
 Simple Huckel Guess.
 Initial guess orbital symmetries:
       Occupied  (A) (A) (A) (A) (A) (A) (A) (A) (A) (A) (A) (A)
                 (A) (A) (A) (A) (A) (A) (A) (A) (A) (A) (A) (A)
                 (A) (A) (A) (A) (A) (A) (A)
       Virtual   (A) (A) (A) (A) (A) (A) (A) (A) (A) (A) (A) (A)
                 (A) (A) (A) (A) (A) (A) (A) (A) (A) (A) (A) (A)
                 (A) (A) (A)
 The electronic state of the initial guess is 1-A.
 Requested convergence on RMS density matrix=1.00D-08 within 128 cycles.
 Requested convergence on MAX density matrix=1.00D-06.
 Requested convergence on             energy=1.00D-06.
 No special actions if energy rises.
 Overlap will be assumed to be unity.
 Keep J ints in memory in canonical form, NReq=892522.
 SCF Done:  E(RPM6) = -0.561278925170E-01 A.U. after   16 cycles
             Convg  =    0.8905D-08             -V/T =  0.9995

 **********************************************************************

            Population analysis using the SCF density.

 **********************************************************************

 Orbital symmetries:
       Occupied  (A) (A) (A) (A) (A) (A) (A) (A) (A) (A) (A) (A)
                 (A) (A) (A) (A) (A) (A) (A) (A) (A) (A) (A) (A)
                 (A) (A) (A) (A) (A) (A) (A)
       Virtual   (A) (A) (A) (A) (A) (A) (A) (A) (A) (A) (A) (A)
                 (A) (A) (A) (A) (A) (A) (A) (A) (A) (A) (A) (A)
                 (A) (A) (A)
 The electronic state is 1-A.
 Alpha  occ. eigenvalues --   -1.13318  -1.10845  -1.09820  -1.03368  -0.97298
 Alpha  occ. eigenvalues --   -0.95562  -0.92684  -0.82820  -0.78881  -0.75303
 Alpha  occ. eigenvalues --   -0.71386  -0.65809  -0.62991  -0.58834  -0.57623
 Alpha  occ. eigenvalues --   -0.57078  -0.56006  -0.54910  -0.52567  -0.52140
 Alpha  occ. eigenvalues --   -0.51495  -0.50165  -0.48630  -0.48238  -0.47057
 Alpha  occ. eigenvalues --   -0.45420  -0.44001  -0.36459  -0.35974  -0.35872
 Alpha  occ. eigenvalues --   -0.35630
 Alpha virt. eigenvalues --   -0.01464   0.01019   0.01489   0.06078   0.06739
 Alpha virt. eigenvalues --    0.08867   0.09890   0.11618   0.14423   0.15462
 Alpha virt. eigenvalues --    0.16471   0.17136   0.17737   0.18029   0.18345
 Alpha virt. eigenvalues --    0.18574   0.18940   0.19363   0.19543   0.19951
 Alpha virt. eigenvalues --    0.20624   0.21391   0.21890   0.22038   0.22358
 Alpha virt. eigenvalues --    0.23058   0.23216
          Condensed to atoms (all electrons):
              1          2          3          4          5          6
     1  C    4.182782   0.000000   0.000000   0.000000   0.000000   0.000000
     2  C    0.000000   4.093085   0.000000   0.000000   0.000000   0.000000
     3  C    0.000000   0.000000   4.170635   0.000000   0.000000   0.000000
     4  C    0.000000   0.000000   0.000000   4.065867   0.000000   0.000000
     5  C    0.000000   0.000000   0.000000   0.000000   4.184144   0.000000
     6  C    0.000000   0.000000   0.000000   0.000000   0.000000   4.099106
     7  H    0.000000   0.000000   0.000000   0.000000   0.000000   0.000000
     8  H    0.000000   0.000000   0.000000   0.000000   0.000000   0.000000
     9  H    0.000000   0.000000   0.000000   0.000000   0.000000   0.000000
    10  H    0.000000   0.000000   0.000000   0.000000   0.000000   0.000000
    11  H    0.000000   0.000000   0.000000   0.000000   0.000000   0.000000
    12  C    0.000000   0.000000   0.000000   0.000000   0.000000   0.000000
    13  C    0.000000   0.000000   0.000000   0.000000   0.000000   0.000000
    14  H    0.000000   0.000000   0.000000   0.000000   0.000000   0.000000
    15  C    0.000000   0.000000   0.000000   0.000000   0.000000   0.000000
    16  O    0.000000   0.000000   0.000000   0.000000   0.000000   0.000000
    17  H    0.000000   0.000000   0.000000   0.000000   0.000000   0.000000
    18  O    0.000000   0.000000   0.000000   0.000000   0.000000   0.000000
    19  C    0.000000   0.000000   0.000000   0.000000   0.000000   0.000000
    20  H    0.000000   0.000000   0.000000   0.000000   0.000000   0.000000
    21  H    0.000000   0.000000   0.000000   0.000000   0.000000   0.000000
    22  H    0.000000   0.000000   0.000000   0.000000   0.000000   0.000000
              7          8          9         10         11         12
     1  C    0.000000   0.000000   0.000000   0.000000   0.000000   0.000000
     2  C    0.000000   0.000000   0.000000   0.000000   0.000000   0.000000
     3  C    0.000000   0.000000   0.000000   0.000000   0.000000   0.000000
     4  C    0.000000   0.000000   0.000000   0.000000   0.000000   0.000000
     5  C    0.000000   0.000000   0.000000   0.000000   0.000000   0.000000
     6  C    0.000000   0.000000   0.000000   0.000000   0.000000   0.000000
     7  H    0.848963   0.000000   0.000000   0.000000   0.000000   0.000000
     8  H    0.000000   0.854286   0.000000   0.000000   0.000000   0.000000
     9  H    0.000000   0.000000   0.831849   0.000000   0.000000   0.000000
    10  H    0.000000   0.000000   0.000000   0.845568   0.000000   0.000000
    11  H    0.000000   0.000000   0.000000   0.000000   0.855181   0.000000
    12  C    0.000000   0.000000   0.000000   0.000000   0.000000   3.427443
    13  C    0.000000   0.000000   0.000000   0.000000   0.000000   0.000000
    14  H    0.000000   0.000000   0.000000   0.000000   0.000000   0.000000
    15  C    0.000000   0.000000   0.000000   0.000000   0.000000   0.000000
    16  O    0.000000   0.000000   0.000000   0.000000   0.000000   0.000000
    17  H    0.000000   0.000000   0.000000   0.000000   0.000000   0.000000
    18  O    0.000000   0.000000   0.000000   0.000000   0.000000   0.000000
    19  C    0.000000   0.000000   0.000000   0.000000   0.000000   0.000000
    20  H    0.000000   0.000000   0.000000   0.000000   0.000000   0.000000
    21  H    0.000000   0.000000   0.000000   0.000000   0.000000   0.000000
    22  H    0.000000   0.000000   0.000000   0.000000   0.000000   0.000000
             13         14         15         16         17         18
     1  C    0.000000   0.000000   0.000000   0.000000   0.000000   0.000000
     2  C    0.000000   0.000000   0.000000   0.000000   0.000000   0.000000
     3  C    0.000000   0.000000   0.000000   0.000000   0.000000   0.000000
     4  C    0.000000   0.000000   0.000000   0.000000   0.000000   0.000000
     5  C    0.000000   0.000000   0.000000   0.000000   0.000000   0.000000
     6  C    0.000000   0.000000   0.000000   0.000000   0.000000   0.000000
     7  H    0.000000   0.000000   0.000000   0.000000   0.000000   0.000000
     8  H    0.000000   0.000000   0.000000   0.000000   0.000000   0.000000
     9  H    0.000000   0.000000   0.000000   0.000000   0.000000   0.000000
    10  H    0.000000   0.000000   0.000000   0.000000   0.000000   0.000000
    11  H    0.000000   0.000000   0.000000   0.000000   0.000000   0.000000
    12  C    0.000000   0.000000   0.000000   0.000000   0.000000   0.000000
    13  C    4.536344   0.000000   0.000000   0.000000   0.000000   0.000000
    14  H    0.000000   0.810925   0.000000   0.000000   0.000000   0.000000
    15  C    0.000000   0.000000   3.571872   0.000000   0.000000   0.000000
    16  O    0.000000   0.000000   0.000000   6.416972   0.000000   0.000000
    17  H    0.000000   0.000000   0.000000   0.000000   0.701115   0.000000
    18  O    0.000000   0.000000   0.000000   0.000000   0.000000   6.493088
    19  C    0.000000   0.000000   0.000000   0.000000   0.000000   0.000000
    20  H    0.000000   0.000000   0.000000   0.000000   0.000000   0.000000
    21  H    0.000000   0.000000   0.000000   0.000000   0.000000   0.000000
    22  H    0.000000   0.000000   0.000000   0.000000   0.000000   0.000000
             19         20         21         22
     1  C    0.000000   0.000000   0.000000   0.000000
     2  C    0.000000   0.000000   0.000000   0.000000
     3  C    0.000000   0.000000   0.000000   0.000000
     4  C    0.000000   0.000000   0.000000   0.000000
     5  C    0.000000   0.000000   0.000000   0.000000
     6  C    0.000000   0.000000   0.000000   0.000000
     7  H    0.000000   0.000000   0.000000   0.000000
     8  H    0.000000   0.000000   0.000000   0.000000
     9  H    0.000000   0.000000   0.000000   0.000000
    10  H    0.000000   0.000000   0.000000   0.000000
    11  H    0.000000   0.000000   0.000000   0.000000
    12  C    0.000000   0.000000   0.000000   0.000000
    13  C    0.000000   0.000000   0.000000   0.000000
    14  H    0.000000   0.000000   0.000000   0.000000
    15  C    0.000000   0.000000   0.000000   0.000000
    16  O    0.000000   0.000000   0.000000   0.000000
    17  H    0.000000   0.000000   0.000000   0.000000
    18  O    0.000000   0.000000   0.000000   0.000000
    19  C    4.561312   0.000000   0.000000   0.000000
    20  H    0.000000   0.819083   0.000000   0.000000
    21  H    0.000000   0.000000   0.819097   0.000000
    22  H    0.000000   0.000000   0.000000   0.811286
 Mulliken atomic charges:
              1
     1  C   -0.182782
     2  C   -0.093085
     3  C   -0.170635
     4  C   -0.065867
     5  C   -0.184144
     6  C   -0.099106
     7  H    0.151037
     8  H    0.145714
     9  H    0.168151
    10  H    0.154432
    11  H    0.144819
    12  C    0.572557
    13  C   -0.536344
    14  H    0.189075
    15  C    0.428128
    16  O   -0.416972
    17  H    0.298885
    18  O   -0.493088
    19  C   -0.561312
    20  H    0.180917
    21  H    0.180903
    22  H    0.188714
 Sum of Mulliken atomic charges =   0.00000
 Mulliken charges with hydrogens summed into heavy atoms:
              1
     1  C   -0.031745
     2  C    0.052629
     3  C   -0.170635
     4  C    0.102284
     5  C   -0.029711
     6  C    0.045714
    12  C    0.572557
    13  C   -0.347269
    15  C    0.428128
    16  O   -0.118087
    18  O   -0.493088
    19  C   -0.010777
 Sum of Mulliken charges with hydrogens summed into heavy atoms =   0.00000
 Charge=              0.0000 electrons
 Dipole moment (field-independent basis, Debye):
    X=             -1.8022    Y=              4.0984    Z=              0.0027  Tot=              4.4771
 N-N= 3.629791171221D+02 E-N=-5.641715213683D+02  KE=-1.213352930397D+02
 Calling FoFJK, ICntrl=      2127 FMM=F ISym2X=0 I1Cent= 0 IOpClX= 0 NMat=1 NMatS=1 NMatT=0.
 ***** Axes restored to original set *****
 -------------------------------------------------------------------
 Center     Atomic                   Forces (Hartrees/Bohr)
 Number     Number              X              Y              Z
 -------------------------------------------------------------------
      1        6          -0.003362057   -0.008658946   -0.000017615
      2        6           0.000938654   -0.008918313    0.000129616
      3        6           0.037043104   -0.006086673   -0.000038018
      4        6           0.003917422    0.008499802    0.000036224
      5        6          -0.004551490    0.007073257    0.000014098
      6        6          -0.008672037    0.000580501   -0.000057534
      7        1           0.002832008    0.004718634    0.000000377
      8        1          -0.002778242    0.003291220   -0.000046205
      9        1           0.000167154   -0.002970921   -0.000016440
     10        1           0.002929041   -0.004479033    0.000006464
     11        1           0.004971463   -0.000010132    0.000011813
     12        6           0.027720330    0.023100575    0.000005473
     13        6          -0.003072323    0.052302267   -0.000016917
     14        1          -0.007316622   -0.001174067   -0.000004293
     15        6           0.010565688    0.010661468   -0.000004910
     16        8          -0.035853986   -0.046347564   -0.000002889
     17        1           0.013662314   -0.000824925    0.000008226
     18        8          -0.036950756   -0.057765188   -0.000000972
     19        6          -0.013381170    0.048429917   -0.000018554
     20        1           0.009057317   -0.003928578   -0.011686583
     21        1           0.009052735   -0.003919511    0.011693316
     22        1          -0.006918545   -0.013573788    0.000005323
 -------------------------------------------------------------------
 Cartesian Forces:  Max     0.057765188 RMS     0.016420591

 GradGradGradGradGradGradGradGradGradGradGradGradGradGradGradGradGradGrad
 Berny optimization.
 Internal  Forces:  Max     0.068513103 RMS     0.011695430
 Search for a local minimum.
 Step number   1 out of a maximum of  110
 All quantities printed in internal units (Hartrees-Bohrs-Radians)
 Mixed Optimization -- RFO/linear search
 Second derivative matrix not updated -- first step.
     Eigenvalues ---    0.00237   0.00237   0.00237   0.00237   0.01231
     Eigenvalues ---    0.01295   0.01459   0.01564   0.02152   0.02153
     Eigenvalues ---    0.02154   0.02155   0.02155   0.02155   0.02156
     Eigenvalues ---    0.02157   0.02681   0.07243   0.07243   0.16000
     Eigenvalues ---    0.16000   0.16000   0.16000   0.16000   0.16000
     Eigenvalues ---    0.16000   0.16000   0.16000   0.16000   0.22000
     Eigenvalues ---    0.22000   0.22000   0.23486   0.25000   0.25000
     Eigenvalues ---    0.25000   0.25000   0.25000   0.28519   0.28519
     Eigenvalues ---    0.28519   0.33709   0.33718   0.33720   0.33725
     Eigenvalues ---    0.33726   0.37230   0.37230   0.37230   0.37230
     Eigenvalues ---    0.40989   0.42116   0.42305   0.46412   0.46453
     Eigenvalues ---    0.46466   0.46497   0.53930   0.55473   0.80209
     Eigenvalues --- 1000.000001000.000001000.000001000.000001000.00000
     Eigenvalues --- 1000.000001000.000001000.000001000.000001000.00000
     Eigenvalues --- 1000.000001000.000001000.000001000.000001000.00000
     Eigenvalues --- 1000.000001000.000001000.000001000.000001000.00000
     Eigenvalues --- 1000.000001000.000001000.000001000.000001000.00000
     Eigenvalues --- 1000.000001000.000001000.000001000.000001000.00000
     Eigenvalues --- 1000.000001000.000001000.000001000.000001000.00000
     Eigenvalues --- 1000.000001000.000001000.000001000.000001000.00000
 RFO step:  Lambda=-3.10998144D-02 EMin= 2.36824121D-03
 Linear search not attempted -- first point.
 Iteration  1 RMS(Cart)=  0.06284027 RMS(Int)=  0.00065527
 Iteration  2 RMS(Cart)=  0.00084498 RMS(Int)=  0.00003770
 Iteration  3 RMS(Cart)=  0.00000069 RMS(Int)=  0.00003770
 Variable       Old X    -DE/DX   Delta X   Delta X   Delta X     New X
                                 (Linear)    (Quad)   (Total)
    R1        2.63647   0.00256   0.00000   0.00526   0.00526   2.64173
    R2        2.63584   0.00473   0.00000   0.00948   0.00948   2.64532
    R3        2.07796  -0.00550   0.00000  -0.01494  -0.01494   2.06302
    R4        2.63562   0.00678   0.00000   0.01380   0.01380   2.64943
    R5        2.07805  -0.00424   0.00000  -0.01151  -0.01151   2.06654
    R6        2.63697   0.00342   0.00000   0.00697   0.00697   2.64394
    R7        2.91018  -0.03343   0.00000  -0.10571  -0.10571   2.80447
    R8        2.63584   0.00329   0.00000   0.00655   0.00654   2.64238
    R9        2.07809  -0.00249   0.00000  -0.00676  -0.00676   2.07134
   R10        2.63643   0.00405   0.00000   0.00803   0.00803   2.64446
   R11        2.07825  -0.00534   0.00000  -0.01451  -0.01451   2.06373
   R12        2.07795  -0.00497   0.00000  -0.01350  -0.01350   2.06445
   R13        2.91018  -0.04815   0.00000  -0.15224  -0.15224   2.75794
   R14        2.37803  -0.06851   0.00000  -0.08223  -0.08223   2.29580
   R15        2.02201   0.00470   0.00000   0.01164   0.01164   2.03365
   R16        2.56096  -0.01376   0.00000  -0.02412  -0.02412   2.53683
   R17        2.70231  -0.05190   0.00000  -0.11770  -0.11770   2.58461
   R18        2.91018  -0.02458   0.00000  -0.07770  -0.07770   2.83248
   R19        1.81414   0.01357   0.00000   0.02316   0.02316   1.83729
   R20        2.02201   0.01497   0.00000   0.03712   0.03712   2.05912
   R21        2.02201   0.01497   0.00000   0.03711   0.03711   2.05912
   R22        2.02201   0.01478   0.00000   0.03665   0.03665   2.05866
    A1        2.09437   0.00000   0.00000   0.00012   0.00012   2.09449
    A2        2.09435  -0.00010   0.00000  -0.00057  -0.00057   2.09378
    A3        2.09447   0.00010   0.00000   0.00045   0.00045   2.09492
    A4        2.09455  -0.00107   0.00000  -0.00374  -0.00374   2.09081
    A5        2.09406  -0.00025   0.00000  -0.00227  -0.00227   2.09179
    A6        2.09458   0.00133   0.00000   0.00601   0.00601   2.10059
    A7        2.09429   0.00099   0.00000   0.00396   0.00396   2.09825
    A8        2.09462   0.00648   0.00000   0.02285   0.02285   2.11747
    A9        2.09427  -0.00747   0.00000  -0.02681  -0.02681   2.06747
   A10        2.09429  -0.00057   0.00000  -0.00225  -0.00225   2.09204
   A11        2.09407  -0.00141   0.00000  -0.00774  -0.00774   2.08632
   A12        2.09483   0.00198   0.00000   0.00999   0.00999   2.10482
   A13        2.09448   0.00006   0.00000  -0.00012  -0.00013   2.09435
   A14        2.09459  -0.00034   0.00000  -0.00155  -0.00154   2.09305
   A15        2.09411   0.00028   0.00000   0.00167   0.00167   2.09579
   A16        2.09440   0.00060   0.00000   0.00204   0.00204   2.09644
   A17        2.09453  -0.00031   0.00000  -0.00107  -0.00107   2.09346
   A18        2.09426  -0.00029   0.00000  -0.00097  -0.00097   2.09329
   A19        2.09241  -0.00646   0.00000  -0.02299  -0.02299   2.06942
   A20        2.09836  -0.00016   0.00000  -0.00056  -0.00056   2.09779
   A21        2.09241   0.00662   0.00000   0.02356   0.02356   2.11597
   A22        2.09241  -0.00799   0.00000  -0.03907  -0.03907   2.05335
   A23        2.09836   0.00439   0.00000   0.01750   0.01750   2.11585
   A24        2.09241   0.00360   0.00000   0.02157   0.02157   2.11399
   A25        2.09838  -0.00462   0.00000  -0.01642  -0.01642   2.08196
   A26        2.09239   0.01913   0.00000   0.06806   0.06806   2.16045
   A27        2.09241  -0.01451   0.00000  -0.05163  -0.05163   2.04078
   A28        1.91114   0.00329   0.00000   0.01721   0.01721   1.92834
   A29        1.91063   0.00305   0.00000   0.01636   0.01619   1.92683
   A30        1.91063   0.00306   0.00000   0.01638   0.01622   1.92686
   A31        1.91063   0.00380   0.00000   0.01914   0.01899   1.92963
   A32        1.91063  -0.00264   0.00000  -0.01231  -0.01248   1.89815
   A33        1.91063  -0.00364   0.00000  -0.01978  -0.01992   1.89071
   A34        1.91063  -0.00364   0.00000  -0.01979  -0.01993   1.89071
    D1        0.00056  -0.00002   0.00000  -0.00031  -0.00031   0.00025
    D2        3.14078   0.00002   0.00000   0.00042   0.00042   3.14120
    D3       -3.14112  -0.00002   0.00000  -0.00031  -0.00031  -3.14143
    D4       -0.00091   0.00002   0.00000   0.00043   0.00042  -0.00048
    D5        0.00026  -0.00001   0.00000  -0.00011  -0.00011   0.00015
    D6        3.14140   0.00001   0.00000   0.00015   0.00015   3.14155
    D7       -3.14124  -0.00001   0.00000  -0.00012  -0.00012  -3.14136
    D8       -0.00010   0.00001   0.00000   0.00015   0.00015   0.00005
    D9       -0.00099   0.00003   0.00000   0.00053   0.00053  -0.00047
   D10        3.14093   0.00002   0.00000   0.00038   0.00038   3.14130
   D11       -3.14120  -0.00001   0.00000  -0.00020  -0.00020  -3.14141
   D12        0.00072  -0.00002   0.00000  -0.00035  -0.00035   0.00036
   D13        0.00060  -0.00002   0.00000  -0.00031  -0.00031   0.00028
   D14       -3.14153   0.00000   0.00000  -0.00005  -0.00005  -3.14158
   D15       -3.14132  -0.00001   0.00000  -0.00016  -0.00016  -3.14148
   D16       -0.00026   0.00001   0.00000   0.00011   0.00011  -0.00016
   D17        0.00000   0.00000   0.00000   0.00008   0.00008   0.00008
   D18        3.14159   0.00000   0.00000   0.00010   0.00010  -3.14149
   D19       -3.14127   0.00000   0.00000  -0.00008  -0.00008  -3.14134
   D20        0.00033   0.00000   0.00000  -0.00005  -0.00005   0.00027
   D21        0.00023  -0.00001   0.00000  -0.00011  -0.00011   0.00012
   D22       -3.14158   0.00000   0.00000   0.00009   0.00009  -3.14149
   D23       -3.14083  -0.00002   0.00000  -0.00037  -0.00037  -3.14121
   D24        0.00054  -0.00001   0.00000  -0.00017  -0.00017   0.00037
   D25       -0.00066   0.00002   0.00000   0.00033   0.00033  -0.00033
   D26        3.14138   0.00000   0.00000   0.00006   0.00006   3.14145
   D27        3.14116   0.00001   0.00000   0.00012   0.00012   3.14128
   D28        0.00001  -0.00001   0.00000  -0.00014  -0.00014  -0.00013
   D29        0.00000   0.00000   0.00000   0.00002   0.00002   0.00002
   D30        3.14159   0.00000   0.00000   0.00001   0.00001  -3.14158
   D31        3.14159   0.00000   0.00000  -0.00001  -0.00001   3.14159
   D32        0.00000   0.00000   0.00000  -0.00001  -0.00001  -0.00001
   D33       -0.00003   0.00000   0.00000   0.00001   0.00001  -0.00002
   D34       -3.14156   0.00000   0.00000  -0.00001  -0.00001  -3.14157
   D35        3.14156   0.00000   0.00000   0.00001   0.00001   3.14157
   D36        0.00003   0.00000   0.00000  -0.00001  -0.00001   0.00002
   D37        3.14152   0.00000   0.00000   0.00000   0.00001   3.14152
   D38       -0.00014   0.00000   0.00000   0.00003   0.00003  -0.00011
   D39        2.09398  -0.00026   0.00000  -0.00248  -0.00249   2.09150
   D40       -2.09481   0.00026   0.00000   0.00249   0.00251  -2.09230
   D41       -0.00041   0.00000   0.00000   0.00002   0.00002  -0.00039
   D42       -1.04754  -0.00026   0.00000  -0.00250  -0.00251  -1.05005
   D43        1.04685   0.00026   0.00000   0.00247   0.00249   1.04934
   D44        3.14125   0.00000   0.00000   0.00000   0.00000   3.14124
         Item               Value     Threshold  Converged?
 Maximum Force            0.068513     0.000450     NO 
 RMS     Force            0.011695     0.000300     NO 
 Maximum Displacement     0.201685     0.001800     NO 
 RMS     Displacement     0.063157     0.001200     NO 
 Predicted change in Energy=-1.682823D-02
 GradGradGradGradGradGradGradGradGradGradGradGradGradGradGradGradGradGrad

                          Input orientation:                          
 ---------------------------------------------------------------------
 Center     Atomic      Atomic             Coordinates (Angstroms)
 Number     Number       Type             X           Y           Z
 ---------------------------------------------------------------------
      1          6           0       -1.981590   -2.832254    0.001680
      2          6           0       -0.583773   -2.851117    0.002047
      3          6           0        0.129229   -1.643941    0.001845
      4          6           0       -0.553583   -0.422759    0.000715
      5          6           0       -1.951780   -0.406806    0.000127
      6          6           0       -2.665200   -1.610681    0.000808
      7          1           0       -2.539574   -3.770590    0.001992
      8          1           0       -0.052311   -3.806853    0.003106
      9          1           0        0.015066    0.514302    0.000555
     10          1           0       -2.485712    0.545852   -0.000849
     11          1           0       -3.757577   -1.597056    0.000487
     12          6           0        1.613161   -1.624404    0.002588
     13          6           0        2.327903   -2.896847    0.003448
     14          1           0        1.741332   -3.799099    0.003488
     15          6           0        3.669595   -2.941500    0.004158
     16          8           0        4.377978   -1.771522    0.004050
     17          1           0        5.333303   -1.952166    0.004678
     18          8           0        2.210300   -0.566400    0.002501
     19          6           0        4.461182   -4.214308    0.005024
     20          1           0        5.093673   -4.268813   -0.880584
     21          1           0        5.093372   -4.267829    0.890906
     22          1           0        3.797063   -5.077862    0.005393
 ---------------------------------------------------------------------
                    Distance matrix (angstroms):
                    1          2          3          4          5
     1  C    0.000000
     2  C    1.397945   0.000000
     3  C    2.422322   1.402015   0.000000
     4  C    2.800870   2.428547   1.399114   0.000000
     5  C    2.425632   2.801090   2.420972   1.398288   0.000000
     6  C    1.399844   2.423019   2.794627   2.422826   1.399388
     7  H    1.091705   2.161154   3.412498   3.892575   3.414755
     8  H    2.161473   1.093564   2.170518   3.421019   3.894652
     9  H    3.896931   3.418283   2.161260   1.096104   2.171848
    10  H    3.415515   3.893171   3.410735   2.161326   1.092081
    11  H    2.163295   3.412581   3.887089   3.412412   2.162776
    12  C    3.792248   2.516216   1.484061   2.477647   3.767142
    13  C    4.309978   2.912035   2.530602   3.797905   4.951364
    14  H    3.846420   2.510933   2.691391   4.082440   5.014653
    15  C    5.652242   4.254328   3.770657   4.917245   6.166404
    16  O    6.447423   5.077844   4.250664   5.112677   6.475206
    17  H    7.367647   5.984973   5.213195   6.082313   7.447187
    18  O    4.765085   3.609262   2.343491   2.767613   4.165139
    19  C    6.589340   5.225884   5.037124   6.286790   7.458095
    20  H    7.273338   5.917963   5.684571   6.889145   8.082646
    21  H    7.273699   5.918371   5.684887   6.889493   8.083017
    22  H    6.199646   4.914278   5.024424   6.371666   7.407293
                    6          7          8          9         10
     6  C    0.000000
     7  H    2.163559   0.000000
     8  H    3.413263   2.487527   0.000000
     9  H    3.420436   4.988636   4.321681   0.000000
    10  H    2.163990   4.316779   4.986732   2.500978   0.000000
    11  H    1.092462   2.491543   4.314187   4.323271   2.491926
    12  C    4.278384   4.674540   2.745338   2.669827   4.637972
    13  C    5.156094   4.945276   2.548241   4.121305   5.918031
    14  H    4.920031   4.281001   1.793660   4.646012   6.061891
    15  C    6.473076   6.264277   3.821181   5.029727   7.074564
    16  O    7.045015   7.200611   4.875452   4.925444   7.244342
    17  H    8.005790   8.080152   5.696025   5.862348   8.208357
    18  O    4.986083   5.729584   3.952207   2.446828   4.825934
    19  C    7.587108   7.014804   4.531848   6.490587   8.421312
    20  H    8.248796   7.700235   5.241705   7.031844   9.022306
    21  H    8.249131   7.700602   5.242018   7.032119   9.022709
    22  H    7.333636   6.470080   4.053783   6.750987   8.432050
                   11         12         13         14         15
    11  H    0.000000
    12  C    5.370809   0.000000
    13  C    6.222744   1.459440   0.000000
    14  H    5.923429   2.178469   1.076162   0.000000
    15  C    7.547876   2.442061   1.342435   2.110373   0.000000
    16  O    8.137426   2.768728   2.338624   3.326104   1.367718
    17  H    9.097814   3.734553   3.150373   4.038987   1.935641
    18  O    6.056221   1.214886   2.333413   3.266539   2.787587
    19  C    8.625430   3.849523   2.507306   2.751361   1.498884
    20  H    9.287583   4.459468   3.211431   3.498629   2.138347
    21  H    9.287905   4.459672   3.211696   3.499056   2.138367
    22  H    8.317970   4.086050   2.629689   2.421006   2.140162
                   16         17         18         19         20
    16  O    0.000000
    17  H    0.972255   0.000000
    18  O    2.480151   3.416651   0.000000
    19  C    2.444203   2.424434   4.286457   0.000000
    20  H    2.744314   2.491578   4.775096   1.089641   0.000000
    21  H    2.744058   2.491037   4.775139   1.089640   1.771490
    22  H    3.356985   3.482816   4.782376   1.089394   1.766554
                   21         22
    21  H    0.000000
    22  H    1.766552   0.000000
 Stoichiometry    C10H10O2
 Framework group  C1[X(C10H10O2)]
 Deg. of freedom    60
 Full point group                 C1      NOp   1
 Largest Abelian subgroup         C1      NOp   1
 Largest concise Abelian subgroup C1      NOp   1
                         Standard orientation:                         
 ---------------------------------------------------------------------
 Center     Atomic      Atomic             Coordinates (Angstroms)
 Number     Number       Type             X           Y           Z
 ---------------------------------------------------------------------
      1          6           0       -2.768514    1.505301   -0.000162
      2          6           0       -1.406791    1.189137    0.000120
      3          6           0       -1.003365   -0.153582    0.000045
      4          6           0       -1.958554   -1.175900    0.000253
      5          6           0       -3.319949   -0.856819    0.000193
      6          6           0       -3.724571    0.482795   -0.000214
      7          1           0       -3.085756    2.549896   -0.000261
      8          1           0       -0.662074    1.989935   -0.000217
      9          1           0       -1.630651   -2.221808    0.000205
     10          1           0       -4.066329   -1.654038    0.000447
     11          1           0       -4.788474    0.730957   -0.000399
     12          6           0        0.432783   -0.527637   -0.000028
     13          6           0        1.431240    0.536811    0.000075
     14          1           0        1.077607    1.553211    0.000218
     15          6           0        2.744639    0.259118    0.000002
     16          8           0        3.152482   -1.046377   -0.000150
     17          1           0        4.123280   -1.099579   -0.000251
     18          8           0        0.759407   -1.697792   -0.000197
     19          6           0        3.817797    1.305533    0.000135
     20          1           0        4.444456    1.206774    0.886059
     21          1           0        4.444928    1.206557   -0.885431
     22          1           0        3.379609    2.302915   -0.000107
 ---------------------------------------------------------------------
 Rotational constants (GHZ):      2.5761382      0.4782447      0.4043836
 Standard basis: VSTO-6G (5D, 7F)
 There are    58 symmetry adapted basis functions of A   symmetry.
 Integral buffers will be    262144 words long.
 Regular integral format.
 Two-electron integral symmetry is turned off.
    58 basis functions,   348 primitive gaussians,    58 cartesian basis functions
    31 alpha electrons       31 beta electrons
       nuclear repulsion energy       367.1732307041 Hartrees.
 Do NDO integrals.
 One-electron integrals computed using PRISM.
 NBasis=    58 RedAO= F  NBF=    58
 NBsUse=    58 1.00D-04 NBFU=    58
 Initial guess read from the read-write file.
 B after Tr=     0.000000    0.000000    0.000000
         Rot=    1.000000    0.000000    0.000000    0.000000 Ang=   0.00 deg.
 Initial guess orbital symmetries:
       Occupied  (A) (A) (A) (A) (A) (A) (A) (A) (A) (A) (A) (A)
                 (A) (A) (A) (A) (A) (A) (A) (A) (A) (A) (A) (A)
                 (A) (A) (A) (A) (A) (A) (A)
       Virtual   (A) (A) (A) (A) (A) (A) (A) (A) (A) (A) (A) (A)
                 (A) (A) (A) (A) (A) (A) (A) (A) (A) (A) (A) (A)
                 (A) (A) (A)
 Requested convergence on RMS density matrix=1.00D-08 within 128 cycles.
 Requested convergence on MAX density matrix=1.00D-06.
 Requested convergence on             energy=1.00D-06.
 No special actions if energy rises.
 Overlap will be assumed to be unity.
 Keep J ints in memory in canonical form, NReq=892522.
 SCF Done:  E(RPM6) = -0.712530579630E-01 A.U. after   18 cycles
             Convg  =    0.4444D-08             -V/T =  0.9994
 Calling FoFJK, ICntrl=      2127 FMM=F ISym2X=0 I1Cent= 0 IOpClX= 0 NMat=1 NMatS=1 NMatT=0.
 ***** Axes restored to original set *****
 -------------------------------------------------------------------
 Center     Atomic                   Forces (Hartrees/Bohr)
 Number     Number              X              Y              Z
 -------------------------------------------------------------------
      1        6          -0.000123151   -0.001513820   -0.000011465
      2        6          -0.005757358   -0.000029342    0.000056311
      3        6          -0.006396012   -0.006396909   -0.000031175
      4        6          -0.004386719    0.003339469    0.000016408
      5        6          -0.001477741    0.000661240    0.000003213
      6        6          -0.000643169    0.000903661   -0.000025141
      7        1           0.000886026    0.001762465    0.000002870
      8        1          -0.000785717    0.001040242   -0.000021156
      9        1           0.000010401   -0.000973212   -0.000008960
     10        1           0.000916600   -0.001672959    0.000006620
     11        1           0.001767894   -0.000053350    0.000003786
     12        6           0.004166546    0.003699067    0.000003887
     13        6          -0.004259269    0.001284837   -0.000003019
     14        1          -0.002591395   -0.005901649    0.000000731
     15        6           0.009203254   -0.003985730    0.000003213
     16        8          -0.007860969   -0.006917173   -0.000000022
     17        1           0.011275224    0.003747068    0.000003981
     18        8           0.003245640    0.011011696   -0.000003150
     19        6          -0.003720815    0.013399196   -0.000004188
     20        1           0.003670135   -0.003259716   -0.004075921
     21        1           0.003668264   -0.003256033    0.004079546
     22        1          -0.000807668   -0.006889049    0.000003632
 -------------------------------------------------------------------
 Cartesian Forces:  Max     0.013399196 RMS     0.004013833

 GradGradGradGradGradGradGradGradGradGradGradGradGradGradGradGradGradGrad
 Berny optimization.
 Using GEDIIS/GDIIS optimizer.
 Internal  Forces:  Max     0.016026167 RMS     0.003880138
 Search for a local minimum.
 Step number   2 out of a maximum of  110
 All quantities printed in internal units (Hartrees-Bohrs-Radians)
 Mixed Optimization -- RFO/linear search
 Update second derivatives using D2CorX and points    1    2
 DE= -1.51D-02 DEPred=-1.68D-02 R= 8.99D-01
 SS=  1.41D+00  RLast= 2.87D-01 DXNew= 5.0454D-01 8.6016D-01
 Trust test= 8.99D-01 RLast= 2.87D-01 DXMaxT set to 5.05D-01
 Use linear search instead of GDIIS.
     Eigenvalues ---    0.00237   0.00237   0.00237   0.00237   0.01249
     Eigenvalues ---    0.01295   0.01501   0.01567   0.02152   0.02153
     Eigenvalues ---    0.02154   0.02155   0.02155   0.02155   0.02156
     Eigenvalues ---    0.02157   0.02681   0.07040   0.07045   0.15115
     Eigenvalues ---    0.16000   0.16000   0.16000   0.16000   0.16000
     Eigenvalues ---    0.16000   0.16000   0.16000   0.16118   0.21447
     Eigenvalues ---    0.22000   0.22000   0.23305   0.24030   0.25000
     Eigenvalues ---    0.25000   0.25000   0.25044   0.28285   0.28519
     Eigenvalues ---    0.33393   0.33712   0.33718   0.33721   0.33726
     Eigenvalues ---    0.35108   0.35569   0.37230   0.37230   0.37370
     Eigenvalues ---    0.41303   0.42158   0.43203   0.46356   0.46455
     Eigenvalues ---    0.46467   0.46539   0.54934   0.56790   0.86226
     Eigenvalues --- 1000.000001000.000001000.000001000.000001000.00000
     Eigenvalues --- 1000.000001000.000001000.000001000.000001000.00000
     Eigenvalues --- 1000.000001000.000001000.000001000.000001000.00000
     Eigenvalues --- 1000.000001000.000001000.000001000.000001000.00000
     Eigenvalues --- 1000.000001000.000001000.000001000.000001000.00000
     Eigenvalues --- 1000.000001000.000001000.000001000.000001000.00000
     Eigenvalues --- 1000.000001000.000001000.000001000.000001000.00000
     Eigenvalues --- 1000.000001000.000001000.000001000.000001000.00000
 RFO step:  Lambda=-3.94498356D-03 EMin= 2.36824121D-03
 Quartic linear search produced a step of -0.06940.
 Iteration  1 RMS(Cart)=  0.03342411 RMS(Int)=  0.00028121
 Iteration  2 RMS(Cart)=  0.00033437 RMS(Int)=  0.00004847
 Iteration  3 RMS(Cart)=  0.00000017 RMS(Int)=  0.00004847
 Variable       Old X    -DE/DX   Delta X   Delta X   Delta X     New X
                                 (Linear)    (Quad)   (Total)
    R1        2.64173  -0.00087  -0.00037  -0.00071  -0.00107   2.64066
    R2        2.64532  -0.00082  -0.00066  -0.00008  -0.00074   2.64458
    R3        2.06302  -0.00197   0.00104  -0.00850  -0.00746   2.05556
    R4        2.64943   0.00257  -0.00096   0.00826   0.00731   2.65674
    R5        2.06654  -0.00129   0.00080  -0.00594  -0.00514   2.06140
    R6        2.64394   0.00461  -0.00048   0.01098   0.01050   2.65445
    R7        2.80447   0.01603   0.00734   0.02895   0.03628   2.84075
    R8        2.64238  -0.00045  -0.00045   0.00050   0.00005   2.64243
    R9        2.07134  -0.00083   0.00047  -0.00367  -0.00320   2.06813
   R10        2.64446  -0.00202  -0.00056  -0.00269  -0.00325   2.64121
   R11        2.06373  -0.00191   0.00101  -0.00825  -0.00724   2.05649
   R12        2.06445  -0.00177   0.00094  -0.00765  -0.00672   2.05774
   R13        2.75794   0.01447   0.01057   0.01402   0.02458   2.78252
   R14        2.29580   0.01119   0.00571  -0.00357   0.00214   2.29794
   R15        2.03365   0.00636  -0.00081   0.01814   0.01733   2.05098
   R16        2.53683   0.01566   0.00167   0.02187   0.02354   2.56037
   R17        2.58461  -0.00094   0.00817  -0.02650  -0.01834   2.56628
   R18        2.83248   0.00149   0.00539  -0.01180  -0.00640   2.82608
   R19        1.83729   0.01038  -0.00161   0.02198   0.02037   1.85767
   R20        2.05912   0.00561  -0.00258   0.02159   0.01901   2.07814
   R21        2.05912   0.00560  -0.00258   0.02159   0.01901   2.07813
   R22        2.05866   0.00595  -0.00254   0.02235   0.01981   2.07846
    A1        2.09449   0.00070  -0.00001   0.00165   0.00164   2.09612
    A2        2.09378  -0.00021   0.00004  -0.00013  -0.00009   2.09369
    A3        2.09492  -0.00049  -0.00003  -0.00152  -0.00155   2.09337
    A4        2.09081   0.00158   0.00026   0.00602   0.00629   2.09710
    A5        2.09179  -0.00098   0.00016  -0.00502  -0.00487   2.08692
    A6        2.10059  -0.00060  -0.00042  -0.00100  -0.00142   2.09917
    A7        2.09825  -0.00437  -0.00027  -0.01407  -0.01433   2.08393
    A8        2.11747   0.00689  -0.00159   0.02963   0.02803   2.14550
    A9        2.06747  -0.00252   0.00186  -0.01556  -0.01371   2.05376
   A10        2.09204   0.00177   0.00016   0.00749   0.00765   2.09969
   A11        2.08632  -0.00142   0.00054  -0.00879  -0.00826   2.07806
   A12        2.10482  -0.00035  -0.00069   0.00130   0.00061   2.10543
   A13        2.09435   0.00015   0.00001  -0.00036  -0.00036   2.09399
   A14        2.09305  -0.00005   0.00011  -0.00008   0.00003   2.09308
   A15        2.09579  -0.00009  -0.00012   0.00044   0.00033   2.09612
   A16        2.09644   0.00017  -0.00014  -0.00073  -0.00089   2.09554
   A17        2.09346  -0.00012   0.00007   0.00017   0.00026   2.09372
   A18        2.09329  -0.00005   0.00007   0.00056   0.00064   2.09392
   A19        2.06942  -0.00079   0.00160  -0.00787  -0.00627   2.06315
   A20        2.09779  -0.00257   0.00004  -0.00954  -0.00950   2.08830
   A21        2.11597   0.00336  -0.00163   0.01740   0.01577   2.13174
   A22        2.05335  -0.00225   0.00271  -0.01659  -0.01387   2.03947
   A23        2.11585   0.00662  -0.00121   0.03131   0.03010   2.14595
   A24        2.11399  -0.00437  -0.00150  -0.01473  -0.01622   2.09776
   A25        2.08196  -0.00156   0.00114  -0.00926  -0.00812   2.07383
   A26        2.16045   0.00430  -0.00472   0.03046   0.02573   2.18618
   A27        2.04078  -0.00274   0.00358  -0.02119  -0.01761   2.02317
   A28        1.92834   0.01061  -0.00119   0.06410   0.06290   1.99125
   A29        1.92683   0.00289  -0.00112   0.02082   0.01948   1.94630
   A30        1.92686   0.00289  -0.00113   0.02083   0.01949   1.94635
   A31        1.92963   0.00359  -0.00132   0.02313   0.02165   1.95127
   A32        1.89815  -0.00247   0.00087  -0.01390  -0.01328   1.88488
   A33        1.89071  -0.00362   0.00138  -0.02659  -0.02536   1.86535
   A34        1.89071  -0.00362   0.00138  -0.02659  -0.02536   1.86534
    D1        0.00025  -0.00001   0.00002  -0.00041  -0.00039  -0.00014
    D2        3.14120   0.00001  -0.00003   0.00055   0.00052  -3.14147
    D3       -3.14143  -0.00001   0.00002  -0.00037  -0.00035   3.14141
    D4       -0.00048   0.00001  -0.00003   0.00059   0.00056   0.00007
    D5        0.00015   0.00000   0.00001  -0.00015  -0.00015   0.00000
    D6        3.14155   0.00000  -0.00001   0.00019   0.00018  -3.14145
    D7       -3.14136   0.00000   0.00001  -0.00019  -0.00019  -3.14155
    D8        0.00005   0.00000  -0.00001   0.00015   0.00014   0.00019
    D9       -0.00047   0.00001  -0.00004   0.00071   0.00067   0.00021
   D10        3.14130   0.00001  -0.00003   0.00044   0.00041  -3.14147
   D11       -3.14141   0.00000   0.00001  -0.00025  -0.00024   3.14154
   D12        0.00036  -0.00001   0.00002  -0.00052  -0.00050  -0.00013
   D13        0.00028  -0.00001   0.00002  -0.00044  -0.00042  -0.00014
   D14       -3.14158   0.00000   0.00000  -0.00008  -0.00008   3.14153
   D15       -3.14148   0.00000   0.00001  -0.00018  -0.00017   3.14153
   D16       -0.00016   0.00000  -0.00001   0.00018   0.00017   0.00001
   D17        0.00008   0.00000  -0.00001   0.00023   0.00022   0.00030
   D18       -3.14149   0.00000  -0.00001   0.00013   0.00012  -3.14137
   D19       -3.14134   0.00000   0.00001  -0.00003  -0.00003  -3.14137
   D20        0.00027   0.00000   0.00000  -0.00014  -0.00013   0.00014
   D21        0.00012   0.00000   0.00001  -0.00013  -0.00012   0.00000
   D22       -3.14149   0.00000  -0.00001   0.00007   0.00006  -3.14143
   D23       -3.14121  -0.00001   0.00003  -0.00049  -0.00046   3.14152
   D24        0.00037  -0.00001   0.00001  -0.00029  -0.00028   0.00009
   D25       -0.00033   0.00001  -0.00002   0.00042   0.00040   0.00007
   D26        3.14145   0.00000   0.00000   0.00008   0.00008   3.14152
   D27        3.14128   0.00000  -0.00001   0.00023   0.00022   3.14150
   D28       -0.00013   0.00000   0.00001  -0.00011  -0.00010  -0.00023
   D29        0.00002   0.00000   0.00000  -0.00004  -0.00004  -0.00002
   D30       -3.14158   0.00000   0.00000  -0.00004  -0.00004   3.14156
   D31        3.14159   0.00000   0.00000   0.00006   0.00006  -3.14154
   D32       -0.00001   0.00000   0.00000   0.00006   0.00006   0.00005
   D33       -0.00002   0.00000   0.00000   0.00002   0.00002   0.00000
   D34       -3.14157   0.00000   0.00000  -0.00002  -0.00002  -3.14159
   D35        3.14157   0.00000   0.00000   0.00002   0.00001   3.14158
   D36        0.00002   0.00000   0.00000  -0.00003  -0.00002   0.00000
   D37        3.14152   0.00000   0.00000   0.00003   0.00003   3.14155
   D38       -0.00011   0.00000   0.00000   0.00007   0.00007  -0.00005
   D39        2.09150  -0.00033   0.00017  -0.00479  -0.00466   2.08684
   D40       -2.09230   0.00033  -0.00017   0.00485   0.00471  -2.08759
   D41       -0.00039   0.00000   0.00000   0.00003   0.00003  -0.00036
   D42       -1.05005  -0.00033   0.00017  -0.00483  -0.00469  -1.05475
   D43        1.04934   0.00033  -0.00017   0.00481   0.00467   1.05401
   D44        3.14124   0.00000   0.00000  -0.00001  -0.00001   3.14124
         Item               Value     Threshold  Converged?
 Maximum Force            0.016026     0.000450     NO 
 RMS     Force            0.003880     0.000300     NO 
 Maximum Displacement     0.109826     0.001800     NO 
 RMS     Displacement     0.033303     0.001200     NO 
 Predicted change in Energy=-2.060670D-03
 GradGradGradGradGradGradGradGradGradGradGradGradGradGradGradGradGradGrad

                          Input orientation:                          
 ---------------------------------------------------------------------
 Center     Atomic      Atomic             Coordinates (Angstroms)
 Number     Number       Type             X           Y           Z
 ---------------------------------------------------------------------
      1          6           0       -2.015869   -2.824117    0.001651
      2          6           0       -0.618753   -2.851150    0.002483
      3          6           0        0.110861   -1.649414    0.001995
      4          6           0       -0.577339   -0.424879    0.000919
      5          6           0       -1.975452   -0.401279    0.000175
      6          6           0       -2.694131   -1.600017    0.000497
      7          1           0       -2.577218   -3.755836    0.001859
      8          1           0       -0.098863   -3.810138    0.003268
      9          1           0       -0.003895    0.507265    0.000607
     10          1           0       -2.502339    0.550916   -0.000806
     11          1           0       -3.782882   -1.581565   -0.000016
     12          6           0        1.613488   -1.605741    0.002675
     13          6           0        2.346917   -2.882528    0.003519
     14          1           0        1.751483   -3.789944    0.003623
     15          6           0        3.699853   -2.955313    0.004139
     16          8           0        4.417506   -1.802413    0.003979
     17          1           0        5.391420   -1.936018    0.004494
     18          8           0        2.184107   -0.531919    0.002435
     19          6           0        4.496313   -4.221075    0.004999
     20          1           0        5.138774   -4.293930   -0.884541
     21          1           0        5.138577   -4.292900    0.894763
     22          1           0        3.849500   -5.110658    0.005445
 ---------------------------------------------------------------------
                    Distance matrix (angstroms):
                    1          2          3          4          5
     1  C    0.000000
     2  C    1.397378   0.000000
     3  C    2.429590   1.405884   0.000000
     4  C    2.797447   2.426625   1.404673   0.000000
     5  C    2.423175   2.800448   2.431162   1.398313   0.000000
     6  C    1.399450   2.423330   2.805427   2.421106   1.397666
     7  H    1.087756   2.157322   3.415082   3.885201   3.408105
     8  H    2.155726   1.090846   2.170879   3.418907   3.891262
     9  H    3.891805   3.414236   2.159730   1.094409   2.170827
    10  H    3.409912   3.888696   3.416178   2.158195   1.088249
    11  H    2.160155   3.409334   3.894335   3.407848   2.158675
    12  C    3.828404   2.556159   1.503262   2.488807   3.785661
    13  C    4.363178   2.965837   2.553531   3.819858   4.983923
    14  H    3.889186   2.549383   2.696945   4.092320   5.037173
    15  C    5.717228   4.319862   3.819193   4.969655   6.223519
    16  O    6.514000   5.144294   4.309362   5.181320   6.544700
    17  H    7.460340   6.079446   5.288332   6.157080   7.525042
    18  O    4.784764   3.637975   2.355237   2.763520   4.161610
    19  C    6.660332   5.295338   5.083861   6.336645   7.514959
    20  H    7.357622   6.001462   5.749723   6.958990   8.157675
    21  H    7.358061   6.001804   5.750041   6.959326   8.158088
    22  H    6.295304   5.007062   5.094865   6.446197   7.490551
                    6          7          8          9         10
     6  C    0.000000
     7  H    2.158988   0.000000
     8  H    3.408821   2.478949   0.000000
     9  H    3.417309   4.979560   4.318449   0.000000
    10  H    2.159466   4.307404   4.979508   2.498825   0.000000
    11  H    1.088908   2.486179   4.305640   4.317864   2.487421
    12  C    4.307623   4.710088   2.791329   2.660964   4.646635
    13  C    5.201635   5.000977   2.615780   4.125170   5.941703
    14  H    4.955731   4.328835   1.850457   4.641914   6.077671
    15  C    6.536043   6.327911   3.893709   5.070227   7.124664
    16  O    7.114517   7.262371   4.942525   4.988328   7.309065
    17  H    8.092530   8.173796   5.801340   5.922759   8.276249
    18  O    4.993800   5.750117   3.994831   2.422243   4.809918
    19  C    7.653264   7.088815   4.613515   6.527565   8.470718
    20  H    8.330357   7.785356   5.334333   7.090981   9.090661
    21  H    8.330824   7.785833   5.334660   7.091270   9.091104
    22  H    7.425883   6.567972   4.157034   6.812470   8.508779
                   11         12         13         14         15
    11  H    0.000000
    12  C    5.396425   0.000000
    13  C    6.266335   1.472448   0.000000
    14  H    5.958703   2.188558   1.085333   0.000000
    15  C    7.607793   2.484806   1.354892   2.119612   0.000000
    16  O    8.203362   2.810907   2.335377   3.325351   1.358015
    17  H    9.181148   3.792342   3.188241   4.084873   1.974934
    18  O    6.058606   1.216017   2.356241   3.286623   2.858378
    19  C    8.689770   3.892385   2.532116   2.778483   1.495495
    20  H    9.366710   4.521189   3.251949   3.537877   2.156883
    21  H    9.367197   4.521381   3.252203   3.538290   2.156913
    22  H    8.408792   4.157428   2.687438   2.479106   2.160535
                   16         17         18         19         20
    16  O    0.000000
    17  H    0.983036   0.000000
    18  O    2.569480   3.501194   0.000000
    19  C    2.419947   2.454120   4.353870   0.000000
    20  H    2.741780   2.532581   4.865133   1.099702   0.000000
    21  H    2.741526   2.532074   4.865194   1.099700   1.779304
    22  H    3.356654   3.529286   4.872207   1.099875   1.766733
                   21         22
    21  H    0.000000
    22  H    1.766729   0.000000
 Stoichiometry    C10H10O2
 Framework group  C1[X(C10H10O2)]
 Deg. of freedom    60
 Full point group                 C1      NOp   1
 Largest Abelian subgroup         C1      NOp   1
 Largest concise Abelian subgroup C1      NOp   1
                         Standard orientation:                         
 ---------------------------------------------------------------------
 Center     Atomic      Atomic             Coordinates (Angstroms)
 Number     Number       Type             X           Y           Z
 ---------------------------------------------------------------------
      1          6           0       -2.798824    1.508590   -0.000092
      2          6           0       -1.436037    1.199600   -0.000283
      3          6           0       -1.016091   -0.142098   -0.000076
      4          6           0       -1.978010   -1.165727    0.000072
      5          6           0       -3.340942   -0.853165    0.000178
      6          6           0       -3.750991    0.482998    0.000140
      7          1           0       -3.120209    2.547785   -0.000080
      8          1           0       -0.701228    2.005826   -0.000351
      9          1           0       -1.644985   -2.208236    0.000170
     10          1           0       -4.080913   -1.651117    0.000441
     11          1           0       -4.812363    0.726329    0.000155
     12          6           0        0.432159   -0.545047   -0.000105
     13          6           0        1.450524    0.518456    0.000026
     14          1           0        1.090216    1.542236    0.000114
     15          6           0        2.781399    0.264481    0.000048
     16          8           0        3.201451   -1.026937   -0.000053
     17          1           0        4.178972   -1.130923   -0.000063
     18          8           0        0.728446   -1.724416   -0.000152
     19          6           0        3.858308    1.302157    0.000186
     20          1           0        4.498986    1.218386    0.890051
     21          1           0        4.499537    1.218115   -0.889253
     22          1           0        3.443844    2.320953   -0.000100
 ---------------------------------------------------------------------
 Rotational constants (GHZ):      2.5641367      0.4685077      0.3971220
 Standard basis: VSTO-6G (5D, 7F)
 There are    58 symmetry adapted basis functions of A   symmetry.
 Integral buffers will be    262144 words long.
 Regular integral format.
 Two-electron integral symmetry is turned off.
    58 basis functions,   348 primitive gaussians,    58 cartesian basis functions
    31 alpha electrons       31 beta electrons
       nuclear repulsion energy       365.5204518748 Hartrees.
 Do NDO integrals.
 One-electron integrals computed using PRISM.
 NBasis=    58 RedAO= F  NBF=    58
 NBsUse=    58 1.00D-04 NBFU=    58
 Initial guess read from the read-write file.
 B after Tr=     0.000000    0.000000    0.000000
         Rot=    1.000000    0.000000    0.000000    0.000000 Ang=   0.00 deg.
 Initial guess orbital symmetries:
       Occupied  (A) (A) (A) (A) (A) (A) (A) (A) (A) (A) (A) (A)
                 (A) (A) (A) (A) (A) (A) (A) (A) (A) (A) (A) (A)
                 (A) (A) (A) (A) (A) (A) (A)
       Virtual   (A) (A) (A) (A) (A) (A) (A) (A) (A) (A) (A) (A)
                 (A) (A) (A) (A) (A) (A) (A) (A) (A) (A) (A) (A)
                 (A) (A) (A)
 Requested convergence on RMS density matrix=1.00D-08 within 128 cycles.
 Requested convergence on MAX density matrix=1.00D-06.
 Requested convergence on             energy=1.00D-06.
 No special actions if energy rises.
 Overlap will be assumed to be unity.
 Keep J ints in memory in canonical form, NReq=892522.
 SCF Done:  E(RPM6) = -0.732394857902E-01 A.U. after   14 cycles
             Convg  =    0.4719D-08             -V/T =  0.9994
 Calling FoFJK, ICntrl=      2127 FMM=F ISym2X=0 I1Cent= 0 IOpClX= 0 NMat=1 NMatS=1 NMatT=0.
 ***** Axes restored to original set *****
 -------------------------------------------------------------------
 Center     Atomic                   Forces (Hartrees/Bohr)
 Number     Number              X              Y              Z
 -------------------------------------------------------------------
      1        6           0.000785610    0.000087208    0.000001922
      2        6           0.000894623    0.003597974   -0.000027015
      3        6          -0.002415021   -0.003957281    0.000018607
      4        6          -0.000612529   -0.001277560   -0.000005779
      5        6           0.001007149    0.000080373   -0.000011447
      6        6          -0.000010455   -0.000007897    0.000014869
      7        1          -0.000048666   -0.000113764    0.000003323
      8        1           0.000478135    0.000376429    0.000007030
      9        1           0.000146988    0.000028954    0.000001362
     10        1           0.000050039    0.000141969    0.000005891
     11        1          -0.000102204   -0.000071763   -0.000006091
     12        6           0.001100700   -0.004365537   -0.000004613
     13        6           0.001808039    0.003805852    0.000000981
     14        1           0.000173014   -0.001116687    0.000000505
     15        6          -0.002461321   -0.004958282    0.000002354
     16        8          -0.002531384    0.003776317   -0.000002418
     17        1           0.002143374   -0.001026801    0.000000922
     18        8           0.001109742    0.004204941    0.000001283
     19        6          -0.002088801    0.003300272   -0.000002622
     20        1           0.000078969   -0.000720073   -0.000123153
     21        1           0.000077975   -0.000719325    0.000123475
     22        1           0.000416023   -0.001065320    0.000000614
 -------------------------------------------------------------------
 Cartesian Forces:  Max     0.004958282 RMS     0.001615049

 GradGradGradGradGradGradGradGradGradGradGradGradGradGradGradGradGradGrad
 Berny optimization.
 Using GEDIIS/GDIIS optimizer.
 Internal  Forces:  Max     0.004282944 RMS     0.001047098
 Search for a local minimum.
 Step number   3 out of a maximum of  110
[...]
 ! D40   D(13,15,19,21)       -119.4139         -DE/DX =    0.0                 !
 ! D41   D(13,15,19,22)         -0.0147         -DE/DX =    0.0                 !
 ! D42   D(16,15,19,20)        -60.6167         -DE/DX =    0.0                 !
 ! D43   D(16,15,19,21)         60.586          -DE/DX =    0.0                 !
 ! D44   D(16,15,19,22)        179.9851         -DE/DX =    0.0                 !
 --------------------------------------------------------------------------------
 GradGradGradGradGradGradGradGradGradGradGradGradGradGradGradGradGradGrad

                          Input orientation:                          
 ---------------------------------------------------------------------
 Center     Atomic      Atomic             Coordinates (Angstroms)
 Number     Number       Type             X           Y           Z
 ---------------------------------------------------------------------
      1          6           0       -1.998819   -2.831922    0.001894
      2          6           0       -0.601331   -2.844819    0.002439
      3          6           0        0.116427   -1.641717    0.001805
      4          6           0       -0.582005   -0.422883    0.000632
      5          6           0       -1.978668   -0.409260    0.000080
      6          6           0       -2.688114   -1.614572    0.000710
      7          1           0       -2.550880   -3.769399    0.002394
      8          1           0       -0.069536   -3.798075    0.003369
      9          1           0       -0.014365    0.513434    0.000170
     10          1           0       -2.512742    0.539150   -0.000833
     11          1           0       -3.777057   -1.605812    0.000283
     12          6           0        1.620640   -1.580454    0.002356
     13          6           0        2.350364   -2.854181    0.003160
     14          1           0        1.750593   -3.763469    0.002957
     15          6           0        3.698890   -2.950415    0.004119
     16          8           0        4.430579   -1.801363    0.004373
     17          1           0        5.407096   -1.958067    0.005079
     18          8           0        2.177277   -0.496996    0.002753
     19          6           0        4.471468   -4.225732    0.004940
     20          1           0        5.113324   -4.317600   -0.884244
     21          1           0        5.112501   -4.316983    0.894779
     22          1           0        3.816418   -5.111518    0.004945
 ---------------------------------------------------------------------
                    Distance matrix (angstroms):
                    1          2          3          4          5
     1  C    0.000000
     2  C    1.397548   0.000000
     3  C    2.427108   1.400939   0.000000
     4  C    2.794786   2.422014   1.404765   0.000000
     5  C    2.422747   2.798038   2.430716   1.396730   0.000000
     6  C    1.398953   2.422432   2.804673   2.419880   1.398603
     7  H    1.087950   2.157682   3.411972   3.882736   3.408514
     8  H    2.157681   1.091560   2.164362   3.413877   3.889584
     9  H    3.889662   3.409164   2.159117   1.094945   2.170219
    10  H    3.410022   3.886483   3.415951   2.157140   1.088447
    11  H    2.159972   3.408868   3.893650   3.407004   2.160079
    12  C    3.829707   2.556516   1.505460   2.488296   3.785065
    13  C    4.349240   2.951710   2.541761   3.809200   4.971738
    14  H    3.863402   2.524968   2.678121   4.074375   5.015787
    15  C    5.698941   4.301517   3.814018   4.971367   6.220302
    16  O    6.511468   5.138961   4.317106   5.198675   6.558691
    17  H    7.457292   6.073510   5.300119   6.182729   7.546413
    18  O    4.784523   3.637710   2.357433   2.760278   4.156872
    19  C    6.618710   5.257396   5.063944   6.324498   7.494648
    20  H    7.319498   5.967627   5.737108   6.956192   8.145766
    21  H    7.319393   5.967529   5.737177   6.956358   8.145887
    22  H    6.246082   4.965322   5.072421   6.428797   7.462860
                    6          7          8          9         10
     6  C    0.000000
     7  H    2.159193   0.000000
     8  H    3.409493   2.481510   0.000000
     9  H    3.417213   4.977607   4.311864   0.000000
    10  H    2.160851   4.308718   4.978031   2.498510   0.000000
    11  H    1.088978   2.486890   4.307173   4.318455   2.489851
    12  C    4.308889   4.710951   2.788287   2.656616   4.645167
    13  C    5.188728   4.985962   2.597471   4.114947   5.929968
    14  H    4.931520   4.301478   1.820459   4.626768   6.057109
    15  C    6.525206   6.303203   3.862585   5.078043   7.124708
    16  O    7.121144   7.253547   4.923200   5.011570   7.327192
    17  H    8.102496   8.161514   5.777468   5.958236   8.304213
    18  O    4.992095   5.750139   3.993156   2.413352   4.803113
    19  C    7.620879   7.037160   4.561098   6.525520   8.454781
    20  H    8.303730   7.734771   5.283919   7.100301   9.084345
    21  H    8.303733   7.734572   5.283690   7.100564   9.084518
    22  H    7.384956   6.507209   4.101923   6.805512   8.484594
                   11         12         13         14         15
    11  H    0.000000
    12  C    5.397757   0.000000
    13  C    6.253297   1.467951   0.000000
    14  H    5.933836   2.186880   1.089279   0.000000
    15  C    7.595904   2.489161   1.351955   2.111141   0.000000
    16  O    8.209966   2.818610   2.331464   3.321473   1.362237
    17  H    9.190907   3.805240   3.185378   4.077927   1.975531
    18  O    6.056697   1.218083   2.363532   3.294223   2.886966
    19  C    8.654604   3.889052   2.525913   2.759864   1.491077
    20  H    9.336758   4.525138   3.250081   3.521668   2.158474
    21  H    9.336745   4.525274   3.250257   3.521952   2.158490
    22  H    8.363662   4.158108   2.691632   2.466753   2.164296
                   16         17         18         19         20
    16  O    0.000000
    17  H    0.989010   0.000000
    18  O    2.603602   3.544921   0.000000
    19  C    2.424714   2.453101   4.377989   0.000000
    20  H    2.754493   2.538621   4.899403   1.100486   0.000000
    21  H    2.754303   2.538275   4.899342   1.100482   1.779023
    22  H    3.366648   3.531927   4.896999   1.101684   1.761513
                   21         22
    21  H    0.000000
    22  H    1.761510   0.000000
 Stoichiometry    C10H10O2
 Framework group  C1[X(C10H10O2)]
 Deg. of freedom    60
 Full point group                 C1      NOp   1
 Largest Abelian subgroup         C1      NOp   1
 Largest concise Abelian subgroup C1      NOp   1
                         Standard orientation:                         
 ---------------------------------------------------------------------
 Center     Atomic      Atomic             Coordinates (Angstroms)
 Number     Number       Type             X           Y           Z
 ---------------------------------------------------------------------
      1          6           0       -2.782070    1.515510   -0.000370
      2          6           0       -1.422072    1.193726   -0.000266
      3          6           0       -1.012961   -0.146147    0.000115
      4          6           0       -1.982684   -1.162514    0.000376
      5          6           0       -3.342055   -0.841632    0.000279
      6          6           0       -3.742567    0.498399   -0.000093
      7          1           0       -3.093839    2.557832   -0.000670
      8          1           0       -0.677680    1.992089   -0.000489
      9          1           0       -1.655511   -2.207436    0.000645
     10          1           0       -4.087501   -1.634743    0.000486
     11          1           0       -4.801988    0.750390   -0.000173
     12          6           0        0.432922   -0.565470    0.000227
     13          6           0        1.446161    0.496711    0.000376
     14          1           0        1.081324    1.523075    0.000744
     15          6           0        2.778554    0.267556    0.000085
     16          8           0        3.214123   -1.023168   -0.000390
     17          1           0        4.199774   -1.104616   -0.000570
     18          8           0        0.714213   -1.750628   -0.000438
     19          6           0        3.833783    1.321029    0.000237
     20          1           0        4.478478    1.256364    0.889762
     21          1           0        4.478533    1.256604   -0.889261
     22          1           0        3.409649    2.337797    0.000360
 ---------------------------------------------------------------------
 Rotational constants (GHZ):      2.5382273      0.4704279      0.3978693

 **********************************************************************

            Population analysis using the SCF density.

 **********************************************************************

 Orbital symmetries:
       Occupied  (A) (A) (A) (A) (A) (A) (A) (A) (A) (A) (A) (A)
                 (A) (A) (A) (A) (A) (A) (A) (A) (A) (A) (A) (A)
                 (A) (A) (A) (A) (A) (A) (A)
       Virtual   (A) (A) (A) (A) (A) (A) (A) (A) (A) (A) (A) (A)
                 (A) (A) (A) (A) (A) (A) (A) (A) (A) (A) (A) (A)
                 (A) (A) (A)
 The electronic state is 1-A.
 Alpha  occ. eigenvalues --   -1.15967  -1.13849  -1.09383  -1.03205  -0.97876
 Alpha  occ. eigenvalues --   -0.95313  -0.93301  -0.83855  -0.79001  -0.75674
 Alpha  occ. eigenvalues --   -0.71473  -0.66565  -0.63428  -0.59227  -0.58388
 Alpha  occ. eigenvalues --   -0.56989  -0.55713  -0.54482  -0.53097  -0.52327
 Alpha  occ. eigenvalues --   -0.51349  -0.49426  -0.49289  -0.48233  -0.47407
 Alpha  occ. eigenvalues --   -0.45199  -0.43619  -0.36191  -0.35628  -0.35551
 Alpha  occ. eigenvalues --   -0.35325
 Alpha virt. eigenvalues --   -0.01143   0.01392   0.01758   0.07101   0.07502
 Alpha virt. eigenvalues --    0.10215   0.10383   0.13039   0.15261   0.15557
 Alpha virt. eigenvalues --    0.16419   0.16906   0.17417   0.17634   0.18086
 Alpha virt. eigenvalues --    0.18892   0.19140   0.19626   0.19929   0.20310
 Alpha virt. eigenvalues --    0.21061   0.21202   0.21884   0.22594   0.22833
 Alpha virt. eigenvalues --    0.23574   0.23725
          Condensed to atoms (all electrons):
              1          2          3          4          5          6
     1  C    4.190978   0.000000   0.000000   0.000000   0.000000   0.000000
     2  C    0.000000   4.078902   0.000000   0.000000   0.000000   0.000000
     3  C    0.000000   0.000000   4.197291   0.000000   0.000000   0.000000
     4  C    0.000000   0.000000   0.000000   4.056837   0.000000   0.000000
     5  C    0.000000   0.000000   0.000000   0.000000   4.191025   0.000000
     6  C    0.000000   0.000000   0.000000   0.000000   0.000000   4.092788
     7  H    0.000000   0.000000   0.000000   0.000000   0.000000   0.000000
     8  H    0.000000   0.000000   0.000000   0.000000   0.000000   0.000000
     9  H    0.000000   0.000000   0.000000   0.000000   0.000000   0.000000
    10  H    0.000000   0.000000   0.000000   0.000000   0.000000   0.000000
    11  H    0.000000   0.000000   0.000000   0.000000   0.000000   0.000000
    12  C    0.000000   0.000000   0.000000   0.000000   0.000000   0.000000
    13  C    0.000000   0.000000   0.000000   0.000000   0.000000   0.000000
    14  H    0.000000   0.000000   0.000000   0.000000   0.000000   0.000000
    15  C    0.000000   0.000000   0.000000   0.000000   0.000000   0.000000
    16  O    0.000000   0.000000   0.000000   0.000000   0.000000   0.000000
    17  H    0.000000   0.000000   0.000000   0.000000   0.000000   0.000000
    18  O    0.000000   0.000000   0.000000   0.000000   0.000000   0.000000
    19  C    0.000000   0.000000   0.000000   0.000000   0.000000   0.000000
    20  H    0.000000   0.000000   0.000000   0.000000   0.000000   0.000000
    21  H    0.000000   0.000000   0.000000   0.000000   0.000000   0.000000
    22  H    0.000000   0.000000   0.000000   0.000000   0.000000   0.000000
              7          8          9         10         11         12
     1  C    0.000000   0.000000   0.000000   0.000000   0.000000   0.000000
     2  C    0.000000   0.000000   0.000000   0.000000   0.000000   0.000000
     3  C    0.000000   0.000000   0.000000   0.000000   0.000000   0.000000
     4  C    0.000000   0.000000   0.000000   0.000000   0.000000   0.000000
     5  C    0.000000   0.000000   0.000000   0.000000   0.000000   0.000000
     6  C    0.000000   0.000000   0.000000   0.000000   0.000000   0.000000
     7  H    0.851138   0.000000   0.000000   0.000000   0.000000   0.000000
     8  H    0.000000   0.859404   0.000000   0.000000   0.000000   0.000000
     9  H    0.000000   0.000000   0.832490   0.000000   0.000000   0.000000
    10  H    0.000000   0.000000   0.000000   0.847745   0.000000   0.000000
    11  H    0.000000   0.000000   0.000000   0.000000   0.858326   0.000000
    12  C    0.000000   0.000000   0.000000   0.000000   0.000000   3.395819
    13  C    0.000000   0.000000   0.000000   0.000000   0.000000   0.000000
    14  H    0.000000   0.000000   0.000000   0.000000   0.000000   0.000000
    15  C    0.000000   0.000000   0.000000   0.000000   0.000000   0.000000
    16  O    0.000000   0.000000   0.000000   0.000000   0.000000   0.000000
    17  H    0.000000   0.000000   0.000000   0.000000   0.000000   0.000000
    18  O    0.000000   0.000000   0.000000   0.000000   0.000000   0.000000
    19  C    0.000000   0.000000   0.000000   0.000000   0.000000   0.000000
    20  H    0.000000   0.000000   0.000000   0.000000   0.000000   0.000000
    21  H    0.000000   0.000000   0.000000   0.000000   0.000000   0.000000
    22  H    0.000000   0.000000   0.000000   0.000000   0.000000   0.000000
             13         14         15         16         17         18
     1  C    0.000000   0.000000   0.000000   0.000000   0.000000   0.000000
     2  C    0.000000   0.000000   0.000000   0.000000   0.000000   0.000000
     3  C    0.000000   0.000000   0.000000   0.000000   0.000000   0.000000
     4  C    0.000000   0.000000   0.000000   0.000000   0.000000   0.000000
     5  C    0.000000   0.000000   0.000000   0.000000   0.000000   0.000000
     6  C    0.000000   0.000000   0.000000   0.000000   0.000000   0.000000
     7  H    0.000000   0.000000   0.000000   0.000000   0.000000   0.000000
     8  H    0.000000   0.000000   0.000000   0.000000   0.000000   0.000000
     9  H    0.000000   0.000000   0.000000   0.000000   0.000000   0.000000
    10  H    0.000000   0.000000   0.000000   0.000000   0.000000   0.000000
    11  H    0.000000   0.000000   0.000000   0.000000   0.000000   0.000000
    12  C    0.000000   0.000000   0.000000   0.000000   0.000000   0.000000
    13  C    4.596673   0.000000   0.000000   0.000000   0.000000   0.000000
    14  H    0.000000   0.802152   0.000000   0.000000   0.000000   0.000000
    15  C    0.000000   0.000000   3.515000   0.000000   0.000000   0.000000
    16  O    0.000000   0.000000   0.000000   6.421521   0.000000   0.000000
    17  H    0.000000   0.000000   0.000000   0.000000   0.682621   0.000000
    18  O    0.000000   0.000000   0.000000   0.000000   0.000000   6.504081
    19  C    0.000000   0.000000   0.000000   0.000000   0.000000   0.000000
    20  H    0.000000   0.000000   0.000000   0.000000   0.000000   0.000000
    21  H    0.000000   0.000000   0.000000   0.000000   0.000000   0.000000
    22  H    0.000000   0.000000   0.000000   0.000000   0.000000   0.000000
             19         20         21         22
     1  C    0.000000   0.000000   0.000000   0.000000
     2  C    0.000000   0.000000   0.000000   0.000000
     3  C    0.000000   0.000000   0.000000   0.000000
     4  C    0.000000   0.000000   0.000000   0.000000
     5  C    0.000000   0.000000   0.000000   0.000000
     6  C    0.000000   0.000000   0.000000   0.000000
     7  H    0.000000   0.000000   0.000000   0.000000
     8  H    0.000000   0.000000   0.000000   0.000000
     9  H    0.000000   0.000000   0.000000   0.000000
    10  H    0.000000   0.000000   0.000000   0.000000
    11  H    0.000000   0.000000   0.000000   0.000000
    12  C    0.000000   0.000000   0.000000   0.000000
    13  C    0.000000   0.000000   0.000000   0.000000
    14  H    0.000000   0.000000   0.000000   0.000000
    15  C    0.000000   0.000000   0.000000   0.000000
    16  O    0.000000   0.000000   0.000000   0.000000
    17  H    0.000000   0.000000   0.000000   0.000000
    18  O    0.000000   0.000000   0.000000   0.000000
    19  C    4.605010   0.000000   0.000000   0.000000
    20  H    0.000000   0.809295   0.000000   0.000000
    21  H    0.000000   0.000000   0.809303   0.000000
    22  H    0.000000   0.000000   0.000000   0.801602
 Mulliken atomic charges:
              1
     1  C   -0.190978
     2  C   -0.078902
     3  C   -0.197291
     4  C   -0.056837
     5  C   -0.191025
     6  C   -0.092788
     7  H    0.148862
     8  H    0.140596
     9  H    0.167510
    10  H    0.152255
    11  H    0.141674
    12  C    0.604181
    13  C   -0.596673
    14  H    0.197848
    15  C    0.485000
    16  O   -0.421521
    17  H    0.317379
    18  O   -0.504081
    19  C   -0.605010
    20  H    0.190705
    21  H    0.190697
    22  H    0.198398
 Sum of Mulliken atomic charges =   0.00000
 Mulliken charges with hydrogens summed into heavy atoms:
              1
     1  C   -0.042116
     2  C    0.061694
     3  C   -0.197291
     4  C    0.110673
     5  C   -0.038769
     6  C    0.048886
    12  C    0.604181
    13  C   -0.398825
    15  C    0.485000
    16  O   -0.104142
    18  O   -0.504081
    19  C   -0.025210
 Sum of Mulliken charges with hydrogens summed into heavy atoms =   0.00000
 Charge=              0.0000 electrons
 Dipole moment (field-independent basis, Debye):
    X=              2.7995    Y=              4.1239    Z=              0.0014  Tot=              4.9844
 N-N= 3.655327022881D+02 E-N=-5.689450060761D+02  KE=-1.215406387093D+02
 1|1|UNPC-DESKTOP-K2VF0AK|FOpt|RPM6|ZDO|C10H10O2|MELIH|27-Nov-2024|0||#
  opt pm6 geom=connectivity||Title Card Required||0,1|C,-1.9988188479,-
 2.8319218917,0.0018941299|C,-0.6013306708,-2.8448193527,0.0024393207|C
 ,0.1164268927,-1.6417172972,0.001805377|C,-0.58200524,-0.4228830625,0.
 0006323683|C,-1.9786683863,-0.4092596838,0.0000795204|C,-2.6881141512,
 -1.6145718352,0.0007096338|H,-2.550880362,-3.7693985107,0.002394305|H,
 -0.0695364575,-3.7980753148,0.0033691968|H,-0.014364832,0.5134340516,0
 .0001700658|H,-2.5127420635,0.539149862,-0.0008331436|H,-3.7770570746,
 -1.6058121784,0.0002833095|C,1.620639726,-1.5804535658,0.0023561372|C,
 2.3503642315,-2.8541813185,0.0031602387|H,1.7505934888,-3.7634685773,0
 .0029569446|C,3.6988899762,-2.9504147736,0.0041188008|O,4.4305791106,-
 1.8013628844,0.0043734551|H,5.4070958993,-1.9580670468,0.0050788792|O,
 2.1772772178,-0.4969959031,0.0027525487|C,4.471467997,-4.225732087,0.0
 049404725|H,5.1133237493,-4.317600229,-0.8842444831|H,5.1125005209,-4.
 3169833017,0.8947787188|H,3.8164175158,-5.1115175593,0.0049453739||Ver
 sion=IA32W-G09RevA.02|State=1-A|HF=-0.0734296|RMSD=8.263e-009|RMSF=4.1
 13e-005|Dipole=0.681312,-1.8388586,0.0006499|PG=C01 [X(C10H10O2)]||@


 ... SUBJECTS WHICH DISCLOSE THEIR FULL POWER, MEANING AND BEAUTY AS SOON
 AS THEY ARE PRESENTED TO THE MIND HAVE VERY LITTLE OF THOSE QUALITIES
 TO DISCLOSE.
                           -- CHARLES DUTTON (1882)
 Job cpu time:  0 days  0 hours  0 minutes  4.0 seconds.
 File lengths (MBytes):  RWF=      5 Int=      0 D2E=      0 Chk=      2 Scr=      1
 Normal termination of Gaussian 09 at Wed Nov 27 23:40:20 2024.
