 Entering Link 1 = C:\G09W\l1.exe PID=     13636.
  
 Copyright (c) 1988,1990,1992,1993,1995,1998,2003,2009, Gaussian, Inc.
                  All Rights Reserved.
  
 This is part of the Gaussian(R) 09 program.  It is based on
 the Gaussian(R) 03 system (copyright 2003, Gaussian, Inc.),
 the Gaussian(R) 98 system (copyright 1998, Gaussian, Inc.),
 the Gaussian(R) 94 system (copyright 1995, Gaussian, Inc.),
 the Gaussian 92(TM) system (copyright 1992, Gaussian, Inc.),
 the Gaussian 90(TM) system (copyright 1990, Gaussian, Inc.),
 the Gaussian 88(TM) system (copyright 1988, Gaussian, Inc.),
 the Gaussian 86(TM) system (copyright 1986, Carnegie Mellon
 University), and the Gaussian 82(TM) system (copyright 1983,
 Carnegie Mellon University). Gaussian is a federally registered
 trademark of Gaussian, Inc.
  
 This software contains proprietary and confidential information,
 including trade secrets, belonging to Gaussian, Inc.
  
 This software is provided under written license and may be
 used, copied, transmitted, or stored only in accord with that
 written license.
  
 The following legend is applicable only to US Government
 contracts under FAR:
  
                    RESTRICTED RIGHTS LEGEND
  
 Use, reproduction and disclosure by the US Government is
 subject to restrictions as set forth in subparagraphs (a)
 and (c) of the Commercial Computer Software - Restricted
 Rights clause in FAR 52.227-19.
  
 Gaussian, Inc.
 340 Quinnipiac St., Bldg. 40, Wallingford CT 06492
  
  
 ---------------------------------------------------------------
 Warning -- This program may not be used in any manner that
 competes with the business of Gaussian, Inc. or will provide
 assistance to any competitor of Gaussian, Inc.  The licensee
 of this program is prohibited from giving any competitor of
 Gaussian, Inc. access to this program.  By using this program,
 the user acknowledges that Gaussian, Inc. is engaged in the
 business of creating and licensing software in the field of
 computational chemistry and represents and warrants to the
 licensee that it is not a competitor of Gaussian, Inc. and that
 it will not use this program in any manner prohibited above.
 ---------------------------------------------------------------
  

 Cite this work as:
 Gaussian 09, Revision A.02,
 M. J. Frisch, G. W. Trucks, H. B. Schlegel, G. E. Scuseria, 
 M. A. Robb, J. R. Cheeseman, G. Scalmani, V. Barone, B. Mennucci, 
 G. A. Petersson, H. Nakatsuji, M. Caricato, X. Li, H. P. Hratchian, 
 A. F. Izmaylov, J. Bloino, G. Zheng, J. L. Sonnenberg, M. Hada, 
 M. Ehara, K. Toyota, R. Fukuda, J. Hasegawa, M. Ishida, T. Nakajima, 
 Y. Honda, O. Kitao, H. Nakai, T. Vreven, J. A. Montgomery, Jr., 
 J. E. Peralta, F. Ogliaro, M. Bearpark, J. J. Heyd, E. Brothers, 
 K. N. Kudin, V. N. Staroverov, R. Kobayashi, J. Normand, 
 K. Raghavachari, A. Rendell, J. C. Burant, S. S. Iyengar, J. Tomasi, 
 M. Cossi, N. Rega, J. M. Millam, M. Klene, J. E. Knox, J. B. Cross, 
 V. Bakken, C. Adamo, J. Jaramillo, R. Gomperts, R. E. Stratmann, 
 O. Yazyev, A. J. Austin, R. Cammi, C. Pomelli, J. W. Ochterski, 
 R. L. Martin, K. Morokuma, V. G. Zakrzewski, G. A. Voth, 
 P. Salvador, J. J. Dannenberg, S. Dapprich, A. D. Daniels, 
 O. Farkas, J. B. Foresman, J. V. Ortiz, J. Cioslowski, 
 and D. J. Fox, Gaussian, Inc., Wallingford CT, 2009.
 
 ******************************************
 Gaussian 09:  IA32W-G09RevA.02 11-Jun-2009
                28-Nov-2024 
 ******************************************
 %chk=C:\G09W\Midterm1\2BAopt2222.chk
 ---------------------------------
 # opt hf/6-311g geom=connectivity
 ---------------------------------
 1/18=20,19=15,38=1,57=2/1,3;
 2/9=110,12=2,17=6,18=5,40=1/2;
 3/5=4,6=6,11=9,16=1,25=1,30=1,71=1/1,2,3;
 4//1;
 5/5=2,38=5/2;
 6/7=2,8=2,9=2,10=2,28=1/1;
 7//1,2,3,16;
 1/18=20,19=15/3(2);
 2/9=110/2;
 99//99;
 2/9=110/2;
 3/5=4,6=6,11=9,16=1,25=1,30=1,71=1/1,2,3;
 4/5=5,16=3/1;
 5/5=2,38=5/2;
 7//1,2,3,16;
 1/18=20,19=15/3(-5);
 2/9=110/2;
 6/7=2,8=2,9=2,10=2,19=2,28=1/1;
 99/9=1/99;
 -------------------
 Title Card Required
 -------------------
 Symbolic Z-matrix:
 Charge =  0 Multiplicity = 1
 C                    -2.01349  -2.81441   0.00168 
 C                    -0.61833  -2.81441   0.00168 
 C                     0.0792   -1.60666   0.00168 
 C                    -0.61845  -0.39815   0.00048 
 C                    -2.01327  -0.39823   0. 
 C                    -2.71088  -1.60644   0.001 
 H                    -2.56325  -3.76673   0.00213 
 H                    -0.06883  -3.76693   0.00299 
 H                    -0.06825   0.55399   0.00042 
 H                    -2.5634    0.55405  -0.00095 
 H                    -3.81048  -1.60625   0.00082 
 C                     1.6192   -1.60655   0.00257 
 C                     2.38666  -2.94169   0.00345 
 H                     1.84806  -3.86625   0.00345 
 C                     3.74183  -2.94965   0.00424 
 O                     4.469    -1.71834   0.00421 
 H                     5.41116  -1.90258   0.00488 
 O                     2.25264  -0.5192    0.00257 
 C                     4.50131  -4.28935   0.00507 
 H                     5.11619  -4.35131  -0.86841 
 H                     5.11581  -4.35043   0.87889 
 H                     3.79961  -5.09713   0.00532 
 

 GradGradGradGradGradGradGradGradGradGradGradGradGradGradGradGradGradGrad
 Berny optimization.
 Initialization pass.
                           ----------------------------
                           !    Initial Parameters    !
                           ! (Angstroms and Degrees)  !
 --------------------------                            --------------------------
 ! Name  Definition              Value          Derivative Info.                !
 --------------------------------------------------------------------------------
 ! R1    R(1,2)                  1.3952         estimate D2E/DX2                !
 ! R2    R(1,6)                  1.3948         estimate D2E/DX2                !
 ! R3    R(1,7)                  1.0996         estimate D2E/DX2                !
 ! R4    R(2,3)                  1.3947         estimate D2E/DX2                !
 ! R5    R(2,8)                  1.0997         estimate D2E/DX2                !
 ! R6    R(3,4)                  1.3954         estimate D2E/DX2                !
 ! R7    R(3,12)                 1.54           estimate D2E/DX2                !
 ! R8    R(4,5)                  1.3948         estimate D2E/DX2                !
 ! R9    R(4,9)                  1.0997         estimate D2E/DX2                !
 ! R10   R(5,6)                  1.3951         estimate D2E/DX2                !
 ! R11   R(5,10)                 1.0998         estimate D2E/DX2                !
 ! R12   R(6,11)                 1.0996         estimate D2E/DX2                !
 ! R13   R(12,13)                1.54           estimate D2E/DX2                !
 ! R14   R(12,18)                1.2584         estimate D2E/DX2                !
 ! R15   R(13,14)                1.07           estimate D2E/DX2                !
 ! R16   R(13,15)                1.3552         estimate D2E/DX2                !
 ! R17   R(15,16)                1.43           estimate D2E/DX2                !
 ! R18   R(15,19)                1.54           estimate D2E/DX2                !
 ! R19   R(16,17)                0.96           estimate D2E/DX2                !
 ! R20   R(19,20)                1.07           estimate D2E/DX2                !
 ! R21   R(19,21)                1.07           estimate D2E/DX2                !
 ! R22   R(19,22)                1.07           estimate D2E/DX2                !
 ! A1    A(2,1,6)              119.9985         estimate D2E/DX2                !
 ! A2    A(2,1,7)              119.9972         estimate D2E/DX2                !
 ! A3    A(6,1,7)              120.0043         estimate D2E/DX2                !
 ! A4    A(1,2,3)              120.0086         estimate D2E/DX2                !
 ! A5    A(1,2,8)              119.9808         estimate D2E/DX2                !
 ! A6    A(3,2,8)              120.0106         estimate D2E/DX2                !
 ! A7    A(2,3,4)              119.9942         estimate D2E/DX2                !
 ! A8    A(2,3,12)             120.0128         estimate D2E/DX2                !
 ! A9    A(4,3,12)             119.993          estimate D2E/DX2                !
 ! A10   A(3,4,5)              119.994          estimate D2E/DX2                !
 ! A11   A(3,4,9)              119.9811         estimate D2E/DX2                !
 ! A12   A(5,4,9)              120.0249         estimate D2E/DX2                !
 ! A13   A(4,5,6)              120.0047         estimate D2E/DX2                !
 ! A14   A(4,5,10)             120.0113         estimate D2E/DX2                !
 ! A15   A(6,5,10)             119.984          estimate D2E/DX2                !
 ! A16   A(1,6,5)              120.0            estimate D2E/DX2                !
 ! A17   A(1,6,11)             120.008          estimate D2E/DX2                !
 ! A18   A(5,6,11)             119.992          estimate D2E/DX2                !
 ! A19   A(3,12,13)            119.8865         estimate D2E/DX2                !
 ! A20   A(3,12,18)            120.2269         estimate D2E/DX2                !
 ! A21   A(13,12,18)           119.8865         estimate D2E/DX2                !
 ! A22   A(12,13,14)           119.8865         estimate D2E/DX2                !
 ! A23   A(12,13,15)           120.2269         estimate D2E/DX2                !
 ! A24   A(14,13,15)           119.8865         estimate D2E/DX2                !
 ! A25   A(13,15,16)           120.2284         estimate D2E/DX2                !
 ! A26   A(13,15,19)           119.8851         estimate D2E/DX2                !
 ! A27   A(16,15,19)           119.8865         estimate D2E/DX2                !
 ! A28   A(15,16,17)           109.5            estimate D2E/DX2                !
 ! A29   A(15,19,20)           109.4712         estimate D2E/DX2                !
 ! A30   A(15,19,21)           109.4712         estimate D2E/DX2                !
 ! A31   A(15,19,22)           109.4712         estimate D2E/DX2                !
 ! A32   A(20,19,21)           109.4713         estimate D2E/DX2                !
 ! A33   A(20,19,22)           109.4712         estimate D2E/DX2                !
 ! A34   A(21,19,22)           109.4712         estimate D2E/DX2                !
 ! D1    D(6,1,2,3)              0.0323         estimate D2E/DX2                !
 ! D2    D(6,1,2,8)            179.9532         estimate D2E/DX2                !
 ! D3    D(7,1,2,3)           -179.9729         estimate D2E/DX2                !
 ! D4    D(7,1,2,8)             -0.052          estimate D2E/DX2                !
 ! D5    D(2,1,6,5)              0.0149         estimate D2E/DX2                !
 ! D6    D(2,1,6,11)           179.9892         estimate D2E/DX2                !
 ! D7    D(7,1,6,5)           -179.9798         estimate D2E/DX2                !
 ! D8    D(7,1,6,11)            -0.0056         estimate D2E/DX2                !
 ! D9    D(1,2,3,4)             -0.0568         estimate D2E/DX2                !
 ! D10   D(1,2,3,12)           179.9619         estimate D2E/DX2                !
 ! D11   D(8,2,3,4)           -179.9777         estimate D2E/DX2                !
 ! D12   D(8,2,3,12)             0.041          estimate D2E/DX2                !
 ! D13   D(2,3,4,5)              0.0341         estimate D2E/DX2                !
 ! D14   D(2,3,4,9)           -179.9964         estimate D2E/DX2                !
 ! D15   D(12,3,4,5)          -179.9846         estimate D2E/DX2                !
 ! D16   D(12,3,4,9)            -0.0151         estimate D2E/DX2                !
 ! D17   D(2,3,12,13)            0.0            estimate D2E/DX2                !
 ! D18   D(2,3,12,18)          180.0            estimate D2E/DX2                !
 ! D19   D(4,3,12,13)         -179.9813         estimate D2E/DX2                !
 ! D20   D(4,3,12,18)            0.0187         estimate D2E/DX2                !
 ! D21   D(3,4,5,6)              0.0131         estimate D2E/DX2                !
 ! D22   D(3,4,5,10)          -179.9995         estimate D2E/DX2                !
 ! D23   D(9,4,5,6)           -179.9563         estimate D2E/DX2                !
 ! D24   D(9,4,5,10)             0.0311         estimate D2E/DX2                !
 ! D25   D(4,5,6,1)             -0.0376         estimate D2E/DX2                !
 ! D26   D(4,5,6,11)           179.9881         estimate D2E/DX2                !
 ! D27   D(10,5,6,1)           179.975          estimate D2E/DX2                !
 ! D28   D(10,5,6,11)            0.0007         estimate D2E/DX2                !
 ! D29   D(3,12,13,14)           0.0            estimate D2E/DX2                !
 ! D30   D(3,12,13,15)         180.0            estimate D2E/DX2                !
 ! D31   D(18,12,13,14)        180.0            estimate D2E/DX2                !
 ! D32   D(18,12,13,15)          0.0            estimate D2E/DX2                !
 ! D33   D(12,13,15,16)         -0.0017         estimate D2E/DX2                !
 ! D34   D(12,13,15,19)       -179.998          estimate D2E/DX2                !
 ! D35   D(14,13,15,16)        179.9983         estimate D2E/DX2                !
 ! D36   D(14,13,15,19)          0.002          estimate D2E/DX2                !
 ! D37   D(13,15,16,17)        179.9958         estimate D2E/DX2                !
 ! D38   D(19,15,16,17)         -0.0079         estimate D2E/DX2                !
 ! D39   D(13,15,19,20)        119.9765         estimate D2E/DX2                !
 ! D40   D(13,15,19,21)       -120.0235         estimate D2E/DX2                !
 ! D41   D(13,15,19,22)         -0.0235         estimate D2E/DX2                !
 ! D42   D(16,15,19,20)        -60.0198         estimate D2E/DX2                !
 ! D43   D(16,15,19,21)         59.9802         estimate D2E/DX2                !
 ! D44   D(16,15,19,22)        179.9802         estimate D2E/DX2                !
 --------------------------------------------------------------------------------
 Trust Radius=3.00D-01 FncErr=1.00D-07 GrdErr=1.00D-07
 Number of steps in this run= 110 maximum allowed number of steps= 132.
 GradGradGradGradGradGradGradGradGradGradGradGradGradGradGradGradGradGrad

                          Input orientation:                          
 ---------------------------------------------------------------------
 Center     Atomic      Atomic             Coordinates (Angstroms)
 Number     Number       Type             X           Y           Z
 ---------------------------------------------------------------------
      1          6           0       -2.013493   -2.814412    0.001678
      2          6           0       -0.618333   -2.814412    0.001678
      3          6           0        0.079205   -1.606661    0.001678
      4          6           0       -0.618449   -0.398152    0.000479
      5          6           0       -2.013274   -0.398230    0.000000
      6          6           0       -2.710875   -1.606436    0.000996
      7          1           0       -2.563252   -3.766729    0.002128
      8          1           0       -0.068825   -3.766925    0.002993
      9          1           0       -0.068249    0.553991    0.000420
     10          1           0       -2.563396    0.554051   -0.000953
     11          1           0       -3.810479   -1.606253    0.000816
     12          6           0        1.619205   -1.606549    0.002566
     13          6           0        2.386658   -2.941695    0.003453
     14          1           0        1.848059   -3.866255    0.003450
     15          6           0        3.741835   -2.949648    0.004237
     16          8           0        4.469004   -1.718338    0.004209
     17          1           0        5.411159   -1.902577    0.004885
     18          8           0        2.252637   -0.519197    0.002569
     19          6           0        4.501309   -4.289349    0.005074
     20          1           0        5.116195   -4.351309   -0.868411
     21          1           0        5.115810   -4.350434    0.878892
     22          1           0        3.799609   -5.097134    0.005324
 ---------------------------------------------------------------------
                    Distance matrix (angstroms):
                    1          2          3          4          5
     1  C    0.000000
     2  C    1.395160   0.000000
     3  C    2.416205   1.394712   0.000000
     4  C    2.790065   2.416260   1.395427   0.000000
     5  C    2.416183   2.789946   2.416356   1.394825   0.000000
     6  C    1.394829   2.416183   2.790080   2.416236   1.395138
     7  H    1.099610   2.165553   3.412986   3.889675   3.413102
     8  H    2.165414   1.099655   2.165330   3.413316   3.889601
     9  H    3.889745   3.413024   2.165678   1.099680   2.165606
    10  H    3.413055   3.889707   3.413506   2.165528   1.099761
    11  H    2.165365   3.413128   3.889684   3.412999   2.165471
    12  C    3.828241   2.542737   1.540000   2.543093   3.828178
    13  C    4.401993   3.007687   2.665832   3.937041   5.082188
    14  H    4.002245   2.681318   2.869601   4.255750   5.190097
    15  C    5.756917   4.362266   3.901087   5.051952   6.295318
    16  O    6.574508   5.204074   4.391221   5.255957   6.615333
    17  H    7.480435   6.098051   5.340160   6.214458   7.575308
    18  O    4.844366   3.675661   2.430306   2.873638   4.267627
    19  C    6.679678   5.327869   5.172217   6.430658   7.588190
    20  H    7.345172   6.000326   5.801846   7.019156   8.198188
    21  H    7.345464   6.000772   5.802171   7.019535   8.198550
    22  H    6.245237   4.972830   5.101452   6.449782   7.474579
                    6          7          8          9         10
     6  C    0.000000
     7  H    2.165331   0.000000
     8  H    3.412938   2.494427   0.000000
     9  H    3.413344   4.989355   4.320917   0.000000
    10  H    2.165516   4.320781   4.989362   2.495147   0.000000
    11  H    1.099604   2.494641   4.320704   4.320988   2.494420
    12  C    4.330080   4.707369   2.741654   2.741430   4.707691
    13  C    5.269513   5.018197   2.590445   4.271580   6.059975
    14  H    5.088288   4.412434   1.919456   4.817761   6.245003
    15  C    6.591031   6.357810   3.897316   5.176122   7.213312
    16  O    7.180752   7.324517   4.978816   5.074462   7.390429
    17  H    8.127432   8.189402   5.788439   6.004886   8.344375
    18  O    5.081195   5.808550   3.992108   2.557001   4.934172
    19  C    7.695040   7.083867   4.599898   6.658740   8.565548
    20  H    8.339857   7.750708   5.290112   7.189944   9.153751
    21  H    8.340098   7.750963   5.290381   7.190241   9.154142
    22  H    7.387245   6.500460   4.090751   6.848033   8.510215
                   11         12         13         14         15
    11  H    0.000000
    12  C    5.429684   0.000000
    13  C    6.339395   1.540000   0.000000
    14  H    6.093166   2.271265   1.070000   0.000000
    15  C    7.670865   2.511867   1.355200   2.103938   0.000000
    16  O    8.280243   2.851992   2.415112   3.388643   1.430000
    17  H    9.226399   3.803493   3.198026   4.068379   1.970533
    18  O    6.159795   1.258400   2.426202   3.371420   2.850404
    19  C    8.734120   3.937505   2.507573   2.686772   1.540000
    20  H    9.379573   4.530038   3.193357   3.417035   2.148263
    21  H    9.379776   4.530243   3.193620   3.417459   2.148263
    22  H    8.372557   4.115623   2.577275   2.307295   2.148263
                   16         17         18         19         20
    16  O    0.000000
    17  H    0.960000   0.000000
    18  O    2.519965   3.448189   0.000000
    19  C    2.571214   2.554311   4.389826   0.000000
    20  H    2.848308   2.616474   4.862473   1.070000   0.000000
    21  H    2.848045   2.615936   4.862518   1.070000   1.747303
    22  H    3.444467   3.578028   4.832249   1.070000   1.747303
                   21         22
    21  H    0.000000
    22  H    1.747303   0.000000
 Stoichiometry    C10H10O2
 Framework group  C1[X(C10H10O2)]
 Deg. of freedom    60
 Full point group                 C1      NOp   1
 Largest Abelian subgroup         C1      NOp   1
 Largest concise Abelian subgroup C1      NOp   1
                         Standard orientation:                         
 ---------------------------------------------------------------------
 Center     Atomic      Atomic             Coordinates (Angstroms)
 Number     Number       Type             X           Y           Z
 ---------------------------------------------------------------------
      1          6           0        2.804855    1.507416   -0.000820
      2          6           0        1.450434    1.172729   -0.000820
      3          6           0        1.062993   -0.167089   -0.000820
      4          6           0        2.030187   -1.172948   -0.002019
      5          6           0        3.384264   -0.838265   -0.002498
      6          6           0        3.771656    0.502009   -0.001502
      7          1           0        3.110108    2.563807   -0.000370
      8          1           0        0.688472    1.965606    0.000495
      9          1           0        1.724463   -2.229276   -0.002078
     10          1           0        4.146766   -1.630770   -0.003451
     11          1           0        4.839195    0.765617   -0.001682
     12          6           0       -0.432011   -0.536630    0.000068
     13          6           0       -1.497345    0.575424    0.000955
     14          1           0       -1.196267    1.602191    0.000953
     15          6           0       -2.814858    0.258049    0.001739
     16          8           0       -3.225413   -1.111748    0.001711
     17          1           0       -4.184254   -1.158903    0.002387
     18          8           0       -0.786101   -1.744186    0.000071
     19          6           0       -3.873538    1.376439    0.002577
     20          1           0       -4.485332    1.289085   -0.870909
     21          1           0       -4.484749    1.288328    0.876394
     22          1           0       -3.386108    2.328969    0.002827
 ---------------------------------------------------------------------
 Rotational constants (GHZ):      2.4766787      0.4600984      0.3889346
 Standard basis: 6-311G (5D, 7F)
 There are   186 symmetry adapted basis functions of A   symmetry.
 Integral buffers will be    262144 words long.
 Raffenetti 1 integral format.
 Two-electron integral symmetry is turned on.
   186 basis functions,   362 primitive gaussians,   186 cartesian basis functions
    43 alpha electrons       43 beta electrons
       nuclear repulsion energy       627.1598859551 Hartrees.
 NAtoms=   22 NActive=   22 NUniq=   22 SFac= 7.50D-01 NAtFMM=   80 NAOKFM=F Big=F
 One-electron integrals computed using PRISM.
 NBasis=   186 RedAO= T  NBF=   186
 NBsUse=   186 1.00D-06 NBFU=   186
 Harris functional with IExCor=  205 diagonalized for initial guess.
 ExpMin= 1.03D-01 ExpMax= 8.59D+03 ExpMxC= 1.30D+03 IAcc=1 IRadAn=         1 AccDes= 0.00D+00
 HarFok:  IExCor=  205 AccDes= 0.00D+00 IRadAn=         1 IDoV= 1
 ScaDFX=  1.000000  1.000000  1.000000  1.000000
 FoFCou: FMM=F IPFlag=           0 FMFlag=      100000 FMFlg1=           0
         NFxFlg=           0 DoJE=T BraDBF=F KetDBF=T FulRan=T
         Omega=  0.000000  0.000000  1.000000  0.000000  0.000000 ICntrl=     500 IOpCl=  0
         NMat0=    1 NMatS0=    1 NMatT0=    0 NMatD0=    1 NMtDS0=    0 NMtDT0=    0
         I1Cent=           4 NGrid=           0.
 Petite list used in FoFCou.
 Initial guess orbital symmetries:
       Occupied  (A) (A) (A) (A) (A) (A) (A) (A) (A) (A) (A) (A)
                 (A) (A) (A) (A) (A) (A) (A) (A) (A) (A) (A) (A)
                 (A) (A) (A) (A) (A) (A) (A) (A) (A) (A) (A) (A)
                 (A) (A) (A) (A) (A) (A) (A)
       Virtual   (A) (A) (A) (A) (A) (A) (A) (A) (A) (A) (A) (A)
                 (A) (A) (A) (A) (A) (A) (A) (A) (A) (A) (A) (A)
                 (A) (A) (A) (A) (A) (A) (A) (A) (A) (A) (A) (A)
                 (A) (A) (A) (A) (A) (A) (A) (A) (A) (A) (A) (A)
                 (A) (A) (A) (A) (A) (A) (A) (A) (A) (A) (A) (A)
                 (A) (A) (A) (A) (A) (A) (A) (A) (A) (A) (A) (A)
                 (A) (A) (A) (A) (A) (A) (A) (A) (A) (A) (A) (A)
                 (A) (A) (A) (A) (A) (A) (A) (A) (A) (A) (A) (A)
                 (A) (A) (A) (A) (A) (A) (A) (A) (A) (A) (A) (A)
                 (A) (A) (A) (A) (A) (A) (A) (A) (A) (A) (A) (A)
                 (A) (A) (A) (A) (A) (A) (A) (A) (A) (A) (A) (A)
                 (A) (A) (A) (A) (A) (A) (A) (A) (A) (A) (A)
 The electronic state of the initial guess is 1-A.
 Requested convergence on RMS density matrix=1.00D-08 within 128 cycles.
 Requested convergence on MAX density matrix=1.00D-06.
 Requested convergence on             energy=1.00D-06.
 No special actions if energy rises.
 Integral accuracy reduced to 1.0D-05 until final iterations.
 Initial convergence to 1.0D-05 achieved.  Increase integral accuracy.
 SCF Done:  E(RHF) =  -534.087025319     A.U. after   17 cycles
             Convg  =    0.3154D-08             -V/T =  2.0010

 **********************************************************************

            Population analysis using the SCF density.

 **********************************************************************

 Orbital symmetries:
       Occupied  (A) (A) (A) (A) (A) (A) (A) (A) (A) (A) (A) (A)
                 (A) (A) (A) (A) (A) (A) (A) (A) (A) (A) (A) (A)
                 (A) (A) (A) (A) (A) (A) (A) (A) (A) (A) (A) (A)
                 (A) (A) (A) (A) (A) (A) (A)
       Virtual   (A) (A) (A) (A) (A) (A) (A) (A) (A) (A) (A) (A)
                 (A) (A) (A) (A) (A) (A) (A) (A) (A) (A) (A) (A)
                 (A) (A) (A) (A) (A) (A) (A) (A) (A) (A) (A) (A)
                 (A) (A) (A) (A) (A) (A) (A) (A) (A) (A) (A) (A)
                 (A) (A) (A) (A) (A) (A) (A) (A) (A) (A) (A) (A)
                 (A) (A) (A) (A) (A) (A) (A) (A) (A) (A) (A) (A)
                 (A) (A) (A) (A) (A) (A) (A) (A) (A) (A) (A) (A)
                 (A) (A) (A) (A) (A) (A) (A) (A) (A) (A) (A) (A)
                 (A) (A) (A) (A) (A) (A) (A) (A) (A) (A) (A) (A)
                 (A) (A) (A) (A) (A) (A) (A) (A) (A) (A) (A) (A)
                 (A) (A) (A) (A) (A) (A) (A) (A) (A) (A) (A) (A)
                 (A) (A) (A) (A) (A) (A) (A) (A) (A) (A) (A)
 The electronic state is 1-A.
 Alpha  occ. eigenvalues --  -20.59334 -20.52870 -11.34885 -11.34882 -11.26041
 Alpha  occ. eigenvalues --  -11.25989 -11.25743 -11.25490 -11.25131 -11.25023
 Alpha  occ. eigenvalues --  -11.24856 -11.24466  -1.39732  -1.35614  -1.16729
 Alpha  occ. eigenvalues --   -1.08875  -1.03955  -1.02514  -0.98624  -0.87196
 Alpha  occ. eigenvalues --   -0.83580  -0.80031  -0.74989  -0.71618  -0.68222
 Alpha  occ. eigenvalues --   -0.65040  -0.63334  -0.62691  -0.62636  -0.61097
 Alpha  occ. eigenvalues --   -0.59431  -0.57235  -0.55941  -0.55426  -0.52954
 Alpha  occ. eigenvalues --   -0.52762  -0.51189  -0.49281  -0.48182  -0.39468
 Alpha  occ. eigenvalues --   -0.35381  -0.34359  -0.34047
 Alpha virt. eigenvalues --    0.07546   0.12673   0.12744   0.15237   0.15307
 Alpha virt. eigenvalues --    0.17093   0.18540   0.19260   0.21026   0.21111
 Alpha virt. eigenvalues --    0.23559   0.24608   0.25994   0.29539   0.34116
 Alpha virt. eigenvalues --    0.36344   0.36497   0.41138   0.42151   0.43590
 Alpha virt. eigenvalues --    0.43968   0.44292   0.44551   0.45364   0.45941
 Alpha virt. eigenvalues --    0.51457   0.53046   0.54573   0.56124   0.56966
 Alpha virt. eigenvalues --    0.58328   0.59603   0.59611   0.59675   0.62451
 Alpha virt. eigenvalues --    0.63353   0.63856   0.64550   0.64785   0.65808
 Alpha virt. eigenvalues --    0.69266   0.70032   0.71794   0.71973   0.73436
 Alpha virt. eigenvalues --    0.75071   0.76372   0.78261   0.78935   0.81001
 Alpha virt. eigenvalues --    0.81255   0.81735   0.83022   0.83175   0.84131
 Alpha virt. eigenvalues --    0.85273   0.86126   0.87722   0.88485   0.92430
 Alpha virt. eigenvalues --    0.95518   0.97360   0.98202   1.00453   1.02771
 Alpha virt. eigenvalues --    1.05712   1.06578   1.07872   1.09502   1.10920
 Alpha virt. eigenvalues --    1.12751   1.14068   1.15713   1.19570   1.20532
 Alpha virt. eigenvalues --    1.23451   1.24948   1.26537   1.29876   1.35147
 Alpha virt. eigenvalues --    1.39516   1.49725   1.62213   1.86820   2.01696
 Alpha virt. eigenvalues --    2.48009   2.50864   2.54236   2.55917   2.59255
 Alpha virt. eigenvalues --    2.59985   2.61850   2.67300   2.77327   2.87459
 Alpha virt. eigenvalues --    2.88279   2.92461   2.94249   2.95399   3.01170
 Alpha virt. eigenvalues --    3.05614   3.08144   3.09924   3.13030   3.13549
 Alpha virt. eigenvalues --    3.18342   3.18889   3.23442   3.25580   3.29774
 Alpha virt. eigenvalues --    3.29884   3.31031   3.32971   3.34402   3.41756
 Alpha virt. eigenvalues --    3.45088   3.52163   3.55816   3.60863   3.63064
 Alpha virt. eigenvalues --    3.65153   3.67799   3.70262   3.73667   3.85286
 Alpha virt. eigenvalues --    5.34755   5.43916   5.44921   5.54298   5.59244
 Alpha virt. eigenvalues --    5.78158  24.25570  24.36877  24.47487  24.49807
 Alpha virt. eigenvalues --   24.59502  24.60871  24.77565  24.79342  24.80076
 Alpha virt. eigenvalues --   25.03566  51.53633  51.63243
          Condensed to atoms (all electrons):
              1          2          3          4          5          6
     1  C    5.091354   0.450800  -0.066226  -0.022328  -0.075142   0.495311
     2  C    0.450800   5.099897   0.406312  -0.105269  -0.026122  -0.095908
     3  C   -0.066226   0.406312   5.843409   0.444847  -0.062333  -0.009216
     4  C   -0.022328  -0.105269   0.444847   5.097605   0.432844  -0.086230
     5  C   -0.075142  -0.026122  -0.062333   0.432844   5.117208   0.475916
     6  C    0.495311  -0.095908  -0.009216  -0.086230   0.475916   5.014459
     7  H    0.396015  -0.036885   0.005446  -0.000283   0.005502  -0.038019
     8  H   -0.031374   0.382110  -0.042961   0.003845  -0.000094   0.004458
     9  H   -0.000437   0.004173  -0.039396   0.395299  -0.040942   0.004627
    10  H    0.005708  -0.000307   0.005724  -0.037590   0.398060  -0.040478
    11  H   -0.041468   0.007632  -0.001603   0.006960  -0.041559   0.397520
    12  C    0.006712  -0.004222  -0.012265  -0.045064   0.009177   0.001020
    13  C    0.000365   0.014865  -0.177228   0.012778  -0.000381   0.000039
    14  H    0.000756   0.002714   0.000619  -0.000158  -0.000005  -0.000012
    15  C   -0.000107  -0.000653   0.012673  -0.000597   0.000009   0.000002
    16  O    0.000000   0.000005  -0.000399   0.000006   0.000000   0.000000
    17  H    0.000000  -0.000004   0.000095  -0.000001   0.000000   0.000000
    18  O   -0.000099   0.004479  -0.153413   0.013646   0.000848   0.000003
    19  C    0.000000   0.000101  -0.000792   0.000002   0.000000   0.000000
    20  H    0.000000  -0.000003   0.000020   0.000000   0.000000   0.000000
    21  H    0.000000  -0.000003   0.000020   0.000000   0.000000   0.000000
    22  H    0.000003   0.000036   0.000016   0.000000   0.000000   0.000000
              7          8          9         10         11         12
     1  C    0.396015  -0.031374  -0.000437   0.005708  -0.041468   0.006712
     2  C   -0.036885   0.382110   0.004173  -0.000307   0.007632  -0.004222
     3  C    0.005446  -0.042961  -0.039396   0.005724  -0.001603  -0.012265
     4  C   -0.000283   0.003845   0.395299  -0.037590   0.006960  -0.045064
     5  C    0.005502  -0.000094  -0.040942   0.398060  -0.041559   0.009177
     6  C   -0.038019   0.004458   0.004627  -0.040478   0.397520   0.001020
     7  H    0.510295  -0.003258   0.000017  -0.000198  -0.004087  -0.000288
     8  H   -0.003258   0.498284  -0.000218   0.000015  -0.000167  -0.001613
     9  H    0.000017  -0.000218   0.452214  -0.003461  -0.000120  -0.000827
    10  H   -0.000198   0.000015  -0.003461   0.505669  -0.004099  -0.000290
    11  H   -0.004087  -0.000167  -0.000120  -0.004099   0.511114  -0.000028
    12  C   -0.000288  -0.001613  -0.000827  -0.000290  -0.000028   4.883120
    13  C    0.000048   0.002660   0.001856   0.000001   0.000001   0.142892
    14  H   -0.000017   0.003679  -0.000046   0.000001   0.000000  -0.024256
    15  C   -0.000001   0.000664  -0.000106   0.000000   0.000000  -0.017256
    16  O    0.000000  -0.000014   0.000001   0.000000   0.000000   0.001189
    17  H    0.000000   0.000001   0.000000   0.000000   0.000000  -0.000386
    18  O    0.000001   0.000075   0.012032  -0.000024   0.000000   0.644265
    19  C    0.000000   0.000029   0.000000   0.000000   0.000000   0.008654
    20  H    0.000000  -0.000001   0.000000   0.000000   0.000000  -0.000331
    21  H    0.000000  -0.000001   0.000000   0.000000   0.000000  -0.000331
    22  H    0.000000   0.000049   0.000000   0.000000   0.000000   0.000415
             13         14         15         16         17         18
     1  C    0.000365   0.000756  -0.000107   0.000000   0.000000  -0.000099
     2  C    0.014865   0.002714  -0.000653   0.000005  -0.000004   0.004479
     3  C   -0.177228   0.000619   0.012673  -0.000399   0.000095  -0.153413
     4  C    0.012778  -0.000158  -0.000597   0.000006  -0.000001   0.013646
     5  C   -0.000381  -0.000005   0.000009   0.000000   0.000000   0.000848
     6  C    0.000039  -0.000012   0.000002   0.000000   0.000000   0.000003
     7  H    0.000048  -0.000017  -0.000001   0.000000   0.000000   0.000001
     8  H    0.002660   0.003679   0.000664  -0.000014   0.000001   0.000075
     9  H    0.001856  -0.000046  -0.000106   0.000001   0.000000   0.012032
    10  H    0.000001   0.000001   0.000000   0.000000   0.000000  -0.000024
    11  H    0.000001   0.000000   0.000000   0.000000   0.000000   0.000000
    12  C    0.142892  -0.024256  -0.017256   0.001189  -0.000386   0.644265
    13  C    5.946411   0.377007   0.311588  -0.081180   0.010736  -0.143266
    14  H    0.377007   0.474238  -0.039098   0.003578  -0.000178   0.001909
    15  C    0.311588  -0.039098   5.024790   0.264576  -0.032489   0.017988
    16  O   -0.081180   0.003578   0.264576   8.332261   0.253400  -0.022926
    17  H    0.010736  -0.000178  -0.032489   0.253400   0.383291   0.001203
    18  O   -0.143266   0.001909   0.017988  -0.022926   0.001203   8.123906
    19  C   -0.102461  -0.009919   0.153068  -0.088189  -0.008173  -0.000070
    20  H   -0.001097   0.000358  -0.052960   0.002941   0.001511   0.000032
    21  H   -0.001078   0.000360  -0.052970   0.002940   0.001514   0.000033
    22  H    0.012747   0.002131  -0.043922   0.003050   0.000148   0.000013
             19         20         21         22
     1  C    0.000000   0.000000   0.000000   0.000003
     2  C    0.000101  -0.000003  -0.000003   0.000036
     3  C   -0.000792   0.000020   0.000020   0.000016
     4  C    0.000002   0.000000   0.000000   0.000000
     5  C    0.000000   0.000000   0.000000   0.000000
     6  C    0.000000   0.000000   0.000000   0.000000
     7  H    0.000000   0.000000   0.000000   0.000000
     8  H    0.000029  -0.000001  -0.000001   0.000049
     9  H    0.000000   0.000000   0.000000   0.000000
    10  H    0.000000   0.000000   0.000000   0.000000
    11  H    0.000000   0.000000   0.000000   0.000000
    12  C    0.008654  -0.000331  -0.000331   0.000415
    13  C   -0.102461  -0.001097  -0.001078   0.012747
    14  H   -0.009919   0.000358   0.000360   0.002131
    15  C    0.153068  -0.052960  -0.052970  -0.043922
    16  O   -0.088189   0.002941   0.002940   0.003050
    17  H   -0.008173   0.001511   0.001514   0.000148
    18  O   -0.000070   0.000032   0.000033   0.000013
    19  C    5.508002   0.377565   0.377558   0.372290
    20  H    0.377565   0.519933  -0.032491  -0.020108
    21  H    0.377558  -0.032491   0.519977  -0.020119
    22  H    0.372290  -0.020108  -0.020119   0.488129
 Mulliken atomic charges:
              1
     1  C   -0.209844
     2  C   -0.103750
     3  C   -0.153350
     4  C   -0.110311
     5  C   -0.192986
     6  C   -0.123493
     7  H    0.165709
     8  H    0.183832
     9  H    0.215334
    10  H    0.171268
    11  H    0.169904
    12  C    0.409712
    13  C   -0.327302
    14  H    0.206340
    15  C    0.454799
    16  O   -0.671240
    17  H    0.389331
    18  O   -0.500636
    19  C   -0.587664
    20  H    0.204631
    21  H    0.204592
    22  H    0.205122
 Sum of Mulliken atomic charges =   0.00000
 Mulliken charges with hydrogens summed into heavy atoms:
              1
     1  C   -0.044134
     2  C    0.080082
     3  C   -0.153350
     4  C    0.105023
     5  C   -0.021718
     6  C    0.046411
    12  C    0.409712
    13  C   -0.120962
    15  C    0.454799
    16  O   -0.281908
    18  O   -0.500636
    19  C    0.026681
 Sum of Mulliken charges with hydrogens summed into heavy atoms =   0.00000
 Electronic spatial extent (au):  <R**2>=           2744.6669
 Charge=              0.0000 electrons
 Dipole moment (field-independent basis, Debye):
    X=             -1.8462    Y=              4.6210    Z=              0.0029  Tot=              4.9762
 Quadrupole moment (field-independent basis, Debye-Ang):
   XX=            -42.8643   YY=            -72.5413   ZZ=            -76.3477
   XY=             -7.0432   XZ=             -0.0203   YZ=              0.0082
 Traceless Quadrupole moment (field-independent basis, Debye-Ang):
   XX=             21.0535   YY=             -8.6235   ZZ=            -12.4299
   XY=             -7.0432   XZ=             -0.0203   YZ=              0.0082
 Octapole moment (field-independent basis, Debye-Ang**2):
  XXX=            -99.2514  YYY=             11.2912  ZZZ=              0.0295  XYY=              6.1864
  XXY=              0.3615  XXZ=              0.0506  XZZ=            -18.3848  YZZ=             -5.2756
  YYZ=              0.0047  XYZ=              0.0141
 Hexadecapole moment (field-independent basis, Debye-Ang**3):
 XXXX=          -2304.4311 YYYY=           -598.5818 ZZZZ=            -88.3813 XXXY=             47.8244
 XXXZ=              0.3939 YYYX=             -6.2693 YYYZ=             -0.0648 ZZZX=              0.9038
 ZZZY=             -0.1119 XXYY=           -554.8366 XXZZ=           -552.4486 YYZZ=           -125.1131
 XXYZ=             -0.0114 YYXZ=              0.2472 ZZXY=              2.5283
 N-N= 6.271598859551D+02 E-N=-2.504112638803D+03  KE= 5.335556941841D+02
 Calling FoFJK, ICntrl=      2127 FMM=F ISym2X=0 I1Cent= 0 IOpClX= 0 NMat=1 NMatS=1 NMatT=0.
 ***** Axes restored to original set *****
 -------------------------------------------------------------------
 Center     Atomic                   Forces (Hartrees/Bohr)
 Number     Number              X              Y              Z
 -------------------------------------------------------------------
      1        6          -0.005983167   -0.011427085   -0.000020487
      2        6          -0.000144401   -0.010788821    0.000165498
      3        6           0.029931167   -0.006600289   -0.000057280
      4        6           0.002560307    0.015268804    0.000043874
      5        6          -0.003500731    0.009834849    0.000019312
      6        6          -0.011649533   -0.001158113   -0.000075331
      7        1           0.010127329    0.017401797   -0.000002192
      8        1          -0.015355546    0.018818431   -0.000071589
      9        1          -0.008313191   -0.020290787   -0.000018923
     10        1           0.010614816   -0.017558602    0.000026034
     11        1           0.020047919   -0.000232023    0.000012368
     12        6           0.020926916    0.015769249    0.000002980
     13        6           0.008893222    0.048767752   -0.000007988
     14        1           0.005490989    0.003632266    0.000000423
     15        6          -0.015519117    0.009216752   -0.000017015
     16        8           0.002701931   -0.061079527    0.000025260
     17        1          -0.009672881    0.006843637   -0.000009556
     18        8          -0.042315060   -0.043004511   -0.000008579
     19        6          -0.009759758    0.035655010   -0.000014509
     20        1           0.006484216   -0.002809667   -0.006338091
     21        1           0.006480689   -0.002806218    0.006344597
     22        1          -0.002046117   -0.003452905    0.000001193
 -------------------------------------------------------------------
 Cartesian Forces:  Max     0.061079527 RMS     0.015859926

 GradGradGradGradGradGradGradGradGradGradGradGradGradGradGradGradGradGrad
 Berny optimization.
 Internal  Forces:  Max     0.058458971 RMS     0.012917204
 Search for a local minimum.
 Step number   1 out of a maximum of  110
 All quantities printed in internal units (Hartrees-Bohrs-Radians)
 Mixed Optimization -- RFO/linear search
 Second derivative matrix not updated -- first step.
     Eigenvalues ---    0.00237   0.00237   0.00237   0.00237   0.01231
     Eigenvalues ---    0.01295   0.01459   0.01564   0.02152   0.02153
     Eigenvalues ---    0.02154   0.02155   0.02155   0.02155   0.02156
     Eigenvalues ---    0.02157   0.02681   0.07243   0.07243   0.16000
     Eigenvalues ---    0.16000   0.16000   0.16000   0.16000   0.16000
     Eigenvalues ---    0.16000   0.16000   0.16000   0.16000   0.22000
     Eigenvalues ---    0.22000   0.22000   0.23486   0.25000   0.25000
     Eigenvalues ---    0.25000   0.25000   0.25000   0.28519   0.28519
     Eigenvalues ---    0.28519   0.33709   0.33718   0.33720   0.33725
     Eigenvalues ---    0.33726   0.37230   0.37230   0.37230   0.37230
     Eigenvalues ---    0.40989   0.42116   0.42305   0.46412   0.46453
     Eigenvalues ---    0.46466   0.46497   0.53930   0.55473   0.80209
     Eigenvalues --- 1000.000001000.000001000.000001000.000001000.00000
     Eigenvalues --- 1000.000001000.000001000.000001000.000001000.00000
     Eigenvalues --- 1000.000001000.000001000.000001000.000001000.00000
     Eigenvalues --- 1000.000001000.000001000.000001000.000001000.00000
     Eigenvalues --- 1000.000001000.000001000.000001000.000001000.00000
     Eigenvalues --- 1000.000001000.000001000.000001000.000001000.00000
     Eigenvalues --- 1000.000001000.000001000.000001000.000001000.00000
     Eigenvalues --- 1000.000001000.000001000.000001000.000001000.00000
 RFO step:  Lambda=-4.29701351D-02 EMin= 2.36824121D-03
 Linear search not attempted -- first point.
 Maximum step size (   0.300) exceeded in Quadratic search.
    -- Step size scaled by   0.849
 Iteration  1 RMS(Cart)=  0.08898241 RMS(Int)=  0.00320783
 Iteration  2 RMS(Cart)=  0.00651455 RMS(Int)=  0.00001680
 Iteration  3 RMS(Cart)=  0.00001522 RMS(Int)=  0.00001510
 Iteration  4 RMS(Cart)=  0.00000000 RMS(Int)=  0.00001510
 Variable       Old X    -DE/DX   Delta X   Delta X   Delta X     New X
                                 (Linear)    (Quad)   (Total)
    R1        2.63647  -0.00910   0.00000  -0.01506  -0.01507   2.62141
    R2        2.63584  -0.00982   0.00000  -0.01657  -0.01657   2.61927
    R3        2.07796  -0.02013   0.00000  -0.04497  -0.04497   2.03299
    R4        2.63562  -0.00159   0.00000  -0.00233  -0.00233   2.63329
    R5        2.07805  -0.02397   0.00000  -0.05355  -0.05355   2.02449
    R6        2.63697  -0.00730   0.00000  -0.01209  -0.01208   2.62489
    R7        2.91018  -0.02833   0.00000  -0.07333  -0.07333   2.83685
    R8        2.63584  -0.01056   0.00000  -0.01783  -0.01782   2.61802
    R9        2.07809  -0.02173   0.00000  -0.04854  -0.04854   2.02955
   R10        2.63643  -0.00786   0.00000  -0.01348  -0.01348   2.62295
   R11        2.07825  -0.02051   0.00000  -0.04584  -0.04584   2.03241
   R12        2.07795  -0.02005   0.00000  -0.04478  -0.04478   2.03317
   R13        2.91018  -0.03291   0.00000  -0.08517  -0.08517   2.82501
   R14        2.37803  -0.05846   0.00000  -0.05875  -0.05875   2.31928
   R15        2.02201  -0.00590   0.00000  -0.01207  -0.01207   2.00994
   R16        2.56096  -0.02122   0.00000  -0.03095  -0.03095   2.53000
   R17        2.70231  -0.05024   0.00000  -0.09423  -0.09423   2.60808
   R18        2.91018  -0.02256   0.00000  -0.05838  -0.05838   2.85180
   R19        1.81414  -0.01081   0.00000  -0.01535  -0.01535   1.79878
   R20        2.02201   0.00906   0.00000   0.01853   0.01853   2.04054
   R21        2.02201   0.00906   0.00000   0.01854   0.01854   2.04054
   R22        2.02201   0.00395   0.00000   0.00808   0.00808   2.03008
    A1        2.09437  -0.00006   0.00000  -0.00038  -0.00039   2.09397
    A2        2.09435  -0.00004   0.00000  -0.00012  -0.00011   2.09424
    A3        2.09447   0.00010   0.00000   0.00050   0.00050   2.09497
    A4        2.09455   0.00169   0.00000   0.00618   0.00617   2.10072
    A5        2.09406  -0.00489   0.00000  -0.02003  -0.02003   2.07403
    A6        2.09458   0.00321   0.00000   0.01385   0.01386   2.10844
    A7        2.09429  -0.00454   0.00000  -0.01254  -0.01254   2.08176
    A8        2.09462   0.01888   0.00000   0.05441   0.05441   2.14903
    A9        2.09427  -0.01434   0.00000  -0.04187  -0.04187   2.05240
   A10        2.09429   0.00215   0.00000   0.00664   0.00665   2.10094
   A11        2.09407  -0.00414   0.00000  -0.01616  -0.01617   2.07790
   A12        2.09483   0.00200   0.00000   0.00952   0.00952   2.10435
   A13        2.09448   0.00094   0.00000   0.00182   0.00183   2.09630
   A14        2.09459  -0.00089   0.00000  -0.00269  -0.00269   2.09190
   A15        2.09411  -0.00005   0.00000   0.00086   0.00086   2.09498
   A16        2.09440  -0.00017   0.00000  -0.00172  -0.00172   2.09267
   A17        2.09453  -0.00015   0.00000  -0.00013  -0.00013   2.09440
   A18        2.09426   0.00032   0.00000   0.00185   0.00186   2.09611
   A19        2.09241  -0.00275   0.00000  -0.00796  -0.00796   2.08445
   A20        2.09836  -0.01636   0.00000  -0.04743  -0.04743   2.05092
   A21        2.09241   0.01911   0.00000   0.05539   0.05539   2.14781
   A22        2.09241  -0.01590   0.00000  -0.04853  -0.04853   2.04389
   A23        2.09836   0.03769   0.00000   0.12173   0.12173   2.22008
   A24        2.09241  -0.02179   0.00000  -0.07320  -0.07320   2.01921
   A25        2.09838   0.02048   0.00000   0.05938   0.05938   2.15776
   A26        2.09239   0.00852   0.00000   0.02471   0.02471   2.11710
   A27        2.09241  -0.02901   0.00000  -0.08409  -0.08409   2.00833
   A28        1.91114   0.00882   0.00000   0.03689   0.03689   1.94803
   A29        1.91063   0.00326   0.00000   0.01374   0.01368   1.92431
   A30        1.91063   0.00326   0.00000   0.01375   0.01370   1.92433
   A31        1.91063  -0.00017   0.00000  -0.00094  -0.00095   1.90968
   A32        1.91063  -0.00309   0.00000  -0.01248  -0.01258   1.89806
   A33        1.91063  -0.00163   0.00000  -0.00703  -0.00704   1.90360
   A34        1.91063  -0.00163   0.00000  -0.00704  -0.00704   1.90359
    D1        0.00056  -0.00002   0.00000  -0.00026  -0.00026   0.00031
    D2        3.14078   0.00003   0.00000   0.00033   0.00033   3.14110
    D3       -3.14112  -0.00002   0.00000  -0.00024  -0.00024  -3.14136
    D4       -0.00091   0.00003   0.00000   0.00035   0.00034  -0.00057
    D5        0.00026  -0.00001   0.00000  -0.00012  -0.00012   0.00014
    D6        3.14140   0.00001   0.00000   0.00011   0.00011   3.14152
    D7       -3.14124  -0.00001   0.00000  -0.00014  -0.00014  -3.14138
    D8       -0.00010   0.00001   0.00000   0.00010   0.00010   0.00000
    D9       -0.00099   0.00003   0.00000   0.00045   0.00045  -0.00054
   D10        3.14093   0.00003   0.00000   0.00032   0.00032   3.14125
   D11       -3.14120  -0.00001   0.00000  -0.00011  -0.00011  -3.14132
   D12        0.00072  -0.00001   0.00000  -0.00024  -0.00025   0.00047
   D13        0.00060  -0.00002   0.00000  -0.00026  -0.00026   0.00033
   D14       -3.14153   0.00000   0.00000  -0.00005  -0.00005  -3.14158
   D15       -3.14132  -0.00001   0.00000  -0.00011  -0.00012  -3.14144
   D16       -0.00026   0.00001   0.00000   0.00010   0.00009  -0.00017
   D17        0.00000   0.00001   0.00000   0.00011   0.00011   0.00011
   D18        3.14159   0.00001   0.00000   0.00011   0.00011  -3.14148
   D19       -3.14127   0.00000   0.00000  -0.00003  -0.00003  -3.14130
   D20        0.00033   0.00000   0.00000  -0.00002  -0.00002   0.00030
   D21        0.00023  -0.00001   0.00000  -0.00012  -0.00012   0.00011
   D22       -3.14158   0.00000   0.00000   0.00004   0.00004  -3.14154
   D23       -3.14083  -0.00002   0.00000  -0.00032  -0.00033  -3.14116
   D24        0.00054  -0.00001   0.00000  -0.00016  -0.00017   0.00038
   D25       -0.00066   0.00002   0.00000   0.00031   0.00031  -0.00034
   D26        3.14138   0.00001   0.00000   0.00008   0.00008   3.14146
   D27        3.14116   0.00001   0.00000   0.00015   0.00015   3.14131
   D28        0.00001  -0.00001   0.00000  -0.00008  -0.00008  -0.00007
   D29        0.00000   0.00000   0.00000   0.00003   0.00003   0.00003
   D30        3.14159   0.00000   0.00000   0.00001   0.00001  -3.14158
   D31        3.14159   0.00000   0.00000   0.00002   0.00002  -3.14157
   D32        0.00000   0.00000   0.00000   0.00001   0.00001   0.00001
   D33       -0.00003   0.00000   0.00000   0.00002   0.00002  -0.00001
   D34       -3.14156   0.00000   0.00000   0.00001   0.00001  -3.14155
   D35        3.14156   0.00000   0.00000   0.00000   0.00000   3.14157
   D36        0.00003   0.00000   0.00000   0.00000   0.00000   0.00003
   D37        3.14152   0.00000   0.00000   0.00000   0.00000   3.14152
   D38       -0.00014   0.00000   0.00000   0.00001   0.00001  -0.00013
   D39        2.09398  -0.00010   0.00000  -0.00076  -0.00079   2.09319
   D40       -2.09481   0.00011   0.00000   0.00080   0.00083  -2.09397
   D41       -0.00041   0.00000   0.00000   0.00002   0.00002  -0.00039
   D42       -1.04754  -0.00011   0.00000  -0.00077  -0.00080  -1.04835
   D43        1.04685   0.00011   0.00000   0.00078   0.00082   1.04767
   D44        3.14125   0.00000   0.00000   0.00001   0.00001   3.14126
         Item               Value     Threshold  Converged?
 Maximum Force            0.058459     0.000450     NO 
 RMS     Force            0.012917     0.000300     NO 
 Maximum Displacement     0.353200     0.001800     NO 
 RMS     Displacement     0.088193     0.001200     NO 
 Predicted change in Energy=-2.293058D-02
 GradGradGradGradGradGradGradGradGradGradGradGradGradGradGradGradGradGrad

                          Input orientation:                          
 ---------------------------------------------------------------------
 Center     Atomic      Atomic             Coordinates (Angstroms)
 Number     Number       Type             X           Y           Z
 ---------------------------------------------------------------------
      1          6           0       -1.980858   -2.839363    0.001706
      2          6           0       -0.593711   -2.828743    0.002018
      3          6           0        0.101420   -1.621027    0.001810
      4          6           0       -0.609833   -0.427910    0.000634
      5          6           0       -1.995189   -0.438192    0.000075
      6          6           0       -2.682556   -1.644047    0.000816
      7          1           0       -2.511467   -3.775219    0.002083
      8          1           0       -0.069887   -3.763261    0.003169
      9          1           0       -0.070486    0.500835    0.000470
     10          1           0       -2.537527    0.490558   -0.000880
     11          1           0       -3.758436   -1.651825    0.000501
     12          6           0        1.600266   -1.537060    0.002561
     13          6           0        2.406498   -2.795949    0.003446
     14          1           0        1.870564   -3.714668    0.003479
     15          6           0        3.741071   -2.902498    0.004196
     16          8           0        4.594471   -1.817837    0.004243
     17          1           0        5.506761   -2.089483    0.004892
     18          8           0        2.105378   -0.418510    0.002417
     19          6           0        4.419989   -4.250266    0.004988
     20          1           0        5.040059   -4.357011   -0.872568
     21          1           0        5.039735   -4.356160    0.882876
     22          1           0        3.675797   -5.025019    0.005230
 ---------------------------------------------------------------------
                    Distance matrix (angstroms):
                    1          2          3          4          5
     1  C    0.000000
     2  C    1.387188   0.000000
     3  C    2.412515   1.393479   0.000000
     4  C    2.773954   2.400887   1.389033   0.000000
     5  C    2.401215   2.771079   2.407254   1.385394   0.000000
     6  C    1.386059   2.401411   2.784071   2.403158   1.388006
     7  H    1.075812   2.138599   3.386403   3.849766   3.376729
     8  H    2.122592   1.071315   2.149073   3.378774   3.842249
     9  H    3.847915   3.370438   2.128814   1.073993   2.141553
    10  H    3.376132   3.846581   3.379770   2.135320   1.075504
    11  H    2.137763   3.376480   3.859979   3.378116   2.140548
    12  C    3.810571   2.545974   1.501196   2.472803   3.759630
    13  C    4.387572   3.000389   2.587243   3.834824   4.993384
    14  H    3.949635   2.618686   2.741023   4.117664   5.067480
    15  C    5.722279   4.335411   3.858657   5.005394   6.243197
    16  O    6.654208   5.285752   4.497360   5.386714   6.732537
    17  H    7.525076   6.145102   5.425603   6.338262   7.681539
    18  O    4.749512   3.618606   2.337070   2.715228   4.100615
    19  C    6.554502   5.211327   5.055981   6.317400   7.462335
    20  H    7.236083   5.902531   5.713169   6.936974   8.100208
    21  H    7.236426   5.902934   5.713508   6.937371   8.100615
    22  H    6.064228   4.801286   4.935924   6.284908   7.293771
                    6          7          8          9         10
     6  C    0.000000
     7  H    2.138029   0.000000
     8  H    3.364090   2.441609   0.000000
     9  H    3.379856   4.923721   4.264096   0.000000
    10  H    2.139527   4.265858   4.917747   2.467063   0.000000
    11  H    1.075908   2.462466   4.250124   4.270236   2.465852
    12  C    4.284158   4.681422   2.783053   2.635229   4.607882
    13  C    5.217792   5.014515   2.658605   4.123620   5.936711
    14  H    5.001837   4.382450   1.941060   4.640921   6.092226
    15  C    6.545738   6.313152   3.906958   5.109859   7.136782
    16  O    7.279102   7.370598   5.053802   5.209422   7.496273
    17  H    8.201423   8.193516   5.822417   6.149427   8.447912
    18  O    4.942292   5.708131   3.989880   2.362114   4.731066
    19  C    7.565615   6.947716   4.516211   6.537381   8.419173
    20  H    8.231753   7.624241   5.218334   7.104825   9.037621
    21  H    8.232093   7.624561   5.218587   7.105167   9.038064
    22  H    7.201364   6.312230   3.952492   6.676056   8.308251
                   11         12         13         14         15
    11  H    0.000000
    12  C    5.359931   0.000000
    13  C    6.270203   1.494929   0.000000
    14  H    5.995079   2.194320   1.063612   0.000000
    15  C    7.603079   2.539187   1.338820   2.039220   0.000000
    16  O    8.354557   3.007341   2.396649   3.319283   1.380138
    17  H    9.275529   3.945362   3.179737   3.982858   1.943876
    18  O    5.992110   1.227311   2.396433   3.304512   2.974171
    19  C    8.581290   3.913098   2.483785   2.605079   1.509109
    20  H    9.246286   4.533228   3.184330   3.350487   2.138151
    21  H    9.246611   4.533456   3.184586   3.350894   2.138162
    22  H    8.163717   4.058780   2.565127   2.230670   2.123525
                   16         17         18         19         20
    16  O    0.000000
    17  H    0.951875   0.000000
    18  O    2.855469   3.789665   0.000000
    19  C    2.438680   2.418690   4.476582   0.000000
    20  H    2.723004   2.475769   4.988962   1.079808   0.000000
    21  H    2.722745   2.475236   4.989062   1.079809   1.755444
    22  H    3.336163   3.459740   4.866842   1.074273   1.754416
                   21         22
    21  H    0.000000
    22  H    1.754412   0.000000
 Stoichiometry    C10H10O2
 Framework group  C1[X(C10H10O2)]
 Deg. of freedom    60
 Full point group                 C1      NOp   1
 Largest Abelian subgroup         C1      NOp   1
 Largest concise Abelian subgroup C1      NOp   1
                         Standard orientation:                         
 ---------------------------------------------------------------------
 Center     Atomic      Atomic             Coordinates (Angstroms)
 Number     Number       Type             X           Y           Z
 ---------------------------------------------------------------------
      1          6           0       -2.775803    1.515217   -0.000204
      2          6           0       -1.429637    1.180362    0.000123
      3          6           0       -1.036348   -0.156466    0.000055
      4          6           0       -2.006998   -1.150070    0.000309
      5          6           0       -3.351502   -0.815964    0.000230
      6          6           0       -3.737676    0.517239   -0.000233
      7          1           0       -3.072738    2.549240   -0.000364
      8          1           0       -0.701716    1.966394   -0.000321
      9          1           0       -1.699904   -2.179223    0.000263
     10          1           0       -4.096074   -1.592056    0.000473
     11          1           0       -4.781878    0.776508   -0.000414
     12          6           0        0.401257   -0.588765   -0.000041
     13          6           0        1.479637    0.446566    0.000073
     14          1           0        1.173515    1.465173    0.000246
     15          6           0        2.802100    0.237929   -0.000004
     16          8           0        3.378055   -1.016287   -0.000192
     17          1           0        4.328579   -0.965615   -0.000283
     18          8           0        0.630661   -1.794445   -0.000217
     19          6           0        3.777493    1.389457    0.000187
     20          1           0        4.404830    1.347844    0.878083
     21          1           0        4.405312    1.347747   -0.877361
     22          1           0        3.235212    2.316816   -0.000017
 ---------------------------------------------------------------------
 Rotational constants (GHZ):      2.5061719      0.4646236      0.3929042
 Standard basis: 6-311G (5D, 7F)
 There are   186 symmetry adapted basis functions of A   symmetry.
 Integral buffers will be    262144 words long.
 Raffenetti 1 integral format.
 Two-electron integral symmetry is turned on.
   186 basis functions,   362 primitive gaussians,   186 cartesian basis functions
    43 alpha electrons       43 beta electrons
       nuclear repulsion energy       632.4691465193 Hartrees.
 NAtoms=   22 NActive=   22 NUniq=   22 SFac= 7.50D-01 NAtFMM=   80 NAOKFM=F Big=F
 One-electron integrals computed using PRISM.
 NBasis=   186 RedAO= T  NBF=   186
 NBsUse=   186 1.00D-06 NBFU=   186
 Initial guess read from the read-write file.
 B after Tr=     0.000000    0.000000    0.000000
         Rot=    1.000000    0.000000    0.000000    0.000000 Ang=   0.00 deg.
 Initial guess orbital symmetries:
       Occupied  (A) (A) (A) (A) (A) (A) (A) (A) (A) (A) (A) (A)
                 (A) (A) (A) (A) (A) (A) (A) (A) (A) (A) (A) (A)
                 (A) (A) (A) (A) (A) (A) (A) (A) (A) (A) (A) (A)
                 (A) (A) (A) (A) (A) (A) (A)
       Virtual   (A) (A) (A) (A) (A) (A) (A) (A) (A) (A) (A) (A)
                 (A) (A) (A) (A) (A) (A) (A) (A) (A) (A) (A) (A)
                 (A) (A) (A) (A) (A) (A) (A) (A) (A) (A) (A) (A)
                 (A) (A) (A) (A) (A) (A) (A) (A) (A) (A) (A) (A)
                 (A) (A) (A) (A) (A) (A) (A) (A) (A) (A) (A) (A)
                 (A) (A) (A) (A) (A) (A) (A) (A) (A) (A) (A) (A)
                 (A) (A) (A) (A) (A) (A) (A) (A) (A) (A) (A) (A)
                 (A) (A) (A) (A) (A) (A) (A) (A) (A) (A) (A) (A)
                 (A) (A) (A) (A) (A) (A) (A) (A) (A) (A) (A) (A)
                 (A) (A) (A) (A) (A) (A) (A) (A) (A) (A) (A) (A)
                 (A) (A) (A) (A) (A) (A) (A) (A) (A) (A) (A) (A)
                 (A) (A) (A) (A) (A) (A) (A) (A) (A) (A) (A)
 Harris functional with IExCor=  205 diagonalized for initial guess.
 ExpMin= 1.03D-01 ExpMax= 8.59D+03 ExpMxC= 1.30D+03 IAcc=1 IRadAn=         1 AccDes= 0.00D+00
 HarFok:  IExCor=  205 AccDes= 0.00D+00 IRadAn=         1 IDoV= 1
 ScaDFX=  1.000000  1.000000  1.000000  1.000000
 FoFCou: FMM=F IPFlag=           0 FMFlag=      100000 FMFlg1=           0
         NFxFlg=           0 DoJE=T BraDBF=F KetDBF=T FulRan=T
         Omega=  0.000000  0.000000  1.000000  0.000000  0.000000 ICntrl=     500 IOpCl=  0
         NMat0=    1 NMatS0=    1 NMatT0=    0 NMatD0=    1 NMtDS0=    0 NMtDT0=    0
         I1Cent=           4 NGrid=           0.
 Petite list used in FoFCou.
 Requested convergence on RMS density matrix=1.00D-08 within 128 cycles.
 Requested convergence on MAX density matrix=1.00D-06.
 Requested convergence on             energy=1.00D-06.
 No special actions if energy rises.
 Integral accuracy reduced to 1.0D-05 until final iterations.
 Initial convergence to 1.0D-05 achieved.  Increase integral accuracy.
 SCF Done:  E(RHF) =  -534.107100917     A.U. after   17 cycles
             Convg  =    0.2992D-08             -V/T =  1.9996
 Calling FoFJK, ICntrl=      2127 FMM=F ISym2X=0 I1Cent= 0 IOpClX= 0 NMat=1 NMatS=1 NMatT=0.
 ***** Axes restored to original set *****
 -------------------------------------------------------------------
 Center     Atomic                   Forces (Hartrees/Bohr)
 Number     Number              X              Y              Z
 -------------------------------------------------------------------
      1        6          -0.001526086   -0.003218925   -0.000014906
      2        6          -0.000894075    0.000195711    0.000084647
      3        6           0.007078875   -0.008884045   -0.000036306
      4        6          -0.003444877    0.006306275    0.000023601
      5        6          -0.000947248    0.002965364    0.000006281
      6        6          -0.003926881    0.000017497   -0.000038126
      7        1           0.002185745    0.003200842    0.000004502
      8        1          -0.002620929    0.002120618   -0.000031068
      9        1          -0.001636798   -0.004701774   -0.000013533
     10        1           0.001965222   -0.003187166    0.000011349
     11        1           0.003718242    0.000030151    0.000004263
     12        6           0.007804177   -0.004170261    0.000007561
     13        6          -0.000997159    0.020816841   -0.000006529
     14        1           0.000083392   -0.000778359   -0.000000921
     15        6          -0.000780846    0.004214749   -0.000004120
     16        8          -0.005009676   -0.018104354    0.000004793
     17        1          -0.003809367    0.006177525   -0.000005285
     18        8           0.003391774   -0.007061719    0.000004624
     19        6          -0.006100879    0.010099116   -0.000004842
     20        1           0.001746783   -0.001203957   -0.001528585
     21        1           0.001744390   -0.001203196    0.001531168
     22        1           0.001976220   -0.003630931    0.000001432
 -------------------------------------------------------------------
 Cartesian Forces:  Max     0.020816841 RMS     0.004714337

 GradGradGradGradGradGradGradGradGradGradGradGradGradGradGradGradGradGrad
 Berny optimization.
 Using GEDIIS/GDIIS optimizer.
 Internal  Forces:  Max     0.019811748 RMS     0.003646866
 Search for a local minimum.
 Step number   2 out of a maximum of  110
 All quantities printed in internal units (Hartrees-Bohrs-Radians)
 Mixed Optimization -- RFO/linear search
 Update second derivatives using D2CorX and points    1    2
 DE= -2.01D-02 DEPred=-2.29D-02 R= 8.75D-01
 SS=  1.41D+00  RLast= 3.00D-01 DXNew= 5.0454D-01 9.0000D-01
 Trust test= 8.75D-01 RLast= 3.00D-01 DXMaxT set to 5.05D-01
 Use linear search instead of GDIIS.
     Eigenvalues ---    0.00237   0.00237   0.00237   0.00237   0.01295
     Eigenvalues ---    0.01312   0.01444   0.01556   0.02152   0.02153
     Eigenvalues ---    0.02154   0.02155   0.02155   0.02155   0.02156
     Eigenvalues ---    0.02157   0.02681   0.07096   0.07184   0.15412
     Eigenvalues ---    0.16000   0.16000   0.16000   0.16000   0.16000
     Eigenvalues ---    0.16000   0.16000   0.16000   0.16062   0.21995
     Eigenvalues ---    0.22000   0.22699   0.23106   0.23866   0.25000
     Eigenvalues ---    0.25000   0.25000   0.26602   0.27728   0.28519
     Eigenvalues ---    0.31412   0.33696   0.33711   0.33722   0.33726
     Eigenvalues ---    0.36549   0.37167   0.37230   0.37230   0.37963
     Eigenvalues ---    0.40296   0.42095   0.42332   0.46427   0.46458
     Eigenvalues ---    0.46480   0.47531   0.53423   0.55372   0.81574
     Eigenvalues --- 1000.000001000.000001000.000001000.000001000.00000
     Eigenvalues --- 1000.000001000.000001000.000001000.000001000.00000
     Eigenvalues --- 1000.000001000.000001000.000001000.000001000.00000
     Eigenvalues --- 1000.000001000.000001000.000001000.000001000.00000
     Eigenvalues --- 1000.000001000.000001000.000001000.000001000.00000
     Eigenvalues --- 1000.000001000.000001000.000001000.000001000.00000
     Eigenvalues --- 1000.000001000.000001000.000001000.000001000.00000
     Eigenvalues --- 1000.000001000.000001000.000001000.000001000.00000
 RFO step:  Lambda=-5.05395384D-03 EMin= 2.36824122D-03
 Quartic linear search produced a step of  0.13471.
 Iteration  1 RMS(Cart)=  0.04859684 RMS(Int)=  0.00112444
 Iteration  2 RMS(Cart)=  0.00123690 RMS(Int)=  0.00004348
 Iteration  3 RMS(Cart)=  0.00000037 RMS(Int)=  0.00004348
 Variable       Old X    -DE/DX   Delta X   Delta X   Delta X     New X
                                 (Linear)    (Quad)   (Total)
    R1        2.62141  -0.00036  -0.00203  -0.00057  -0.00259   2.61881
    R2        2.61927  -0.00051  -0.00223  -0.00102  -0.00326   2.61601
    R3        2.03299  -0.00386  -0.00606  -0.01149  -0.01754   2.01545
    R4        2.63329   0.00024  -0.00031   0.00077   0.00047   2.63376
    R5        2.02449  -0.00313  -0.00721  -0.00882  -0.01603   2.00846
    R6        2.62489   0.00392  -0.00163   0.01000   0.00838   2.63327
    R7        2.83685   0.00034  -0.00988   0.00360  -0.00628   2.83057
    R8        2.61802  -0.00111  -0.00240  -0.00213  -0.00454   2.61348
    R9        2.02955  -0.00489  -0.00654  -0.01478  -0.02132   2.00823
   R10        2.62295  -0.00074  -0.00182  -0.00159  -0.00342   2.61953
   R11        2.03241  -0.00374  -0.00618  -0.01107  -0.01725   2.01516
   R12        2.03317  -0.00372  -0.00603  -0.01101  -0.01705   2.01613
   R13        2.82501  -0.01981  -0.01147  -0.07470  -0.08617   2.73883
   R14        2.31928  -0.00504  -0.00791  -0.00579  -0.01371   2.30557
   R15        2.00994   0.00063  -0.00163   0.00223   0.00060   2.01054
   R16        2.53000  -0.00991  -0.00417  -0.01988  -0.02405   2.50596
   R17        2.60808  -0.01483  -0.01269  -0.03797  -0.05066   2.55742
   R18        2.85180  -0.00391  -0.00786  -0.01346  -0.02132   2.83048
   R19        1.79878  -0.00541  -0.00207  -0.01059  -0.01266   1.78612
   R20        2.04054   0.00236   0.00250   0.00659   0.00908   2.04962
   R21        2.04054   0.00236   0.00250   0.00658   0.00908   2.04962
   R22        2.03008   0.00125   0.00109   0.00353   0.00462   2.03470
    A1        2.09397   0.00077  -0.00005   0.00288   0.00282   2.09680
    A2        2.09424  -0.00071  -0.00001  -0.00368  -0.00369   2.09055
    A3        2.09497  -0.00005   0.00007   0.00080   0.00087   2.09584
    A4        2.10072   0.00150   0.00083   0.00714   0.00799   2.10871
    A5        2.07403  -0.00202  -0.00270  -0.01154  -0.01424   2.05979
    A6        2.10844   0.00051   0.00187   0.00440   0.00626   2.11469
    A7        2.08176  -0.00354  -0.00169  -0.01493  -0.01660   2.06516
    A8        2.14903   0.00468   0.00733   0.01878   0.02610   2.17513
    A9        2.05240  -0.00114  -0.00564  -0.00385  -0.00950   2.04290
   A10        2.10094   0.00177   0.00090   0.00900   0.00991   2.11085
   A11        2.07790  -0.00185  -0.00218  -0.01055  -0.01273   2.06516
   A12        2.10435   0.00007   0.00128   0.00155   0.00282   2.10717
   A13        2.09630   0.00007   0.00025  -0.00020   0.00004   2.09634
   A14        2.09190  -0.00012  -0.00036  -0.00045  -0.00081   2.09110
   A15        2.09498   0.00006   0.00012   0.00065   0.00077   2.09575
   A16        2.09267  -0.00057  -0.00023  -0.00390  -0.00415   2.08852
   A17        2.09440   0.00029  -0.00002   0.00201   0.00201   2.09641
   A18        2.09611   0.00028   0.00025   0.00188   0.00215   2.09826
   A19        2.08445  -0.00122  -0.00107  -0.00515  -0.00622   2.07823
   A20        2.05092   0.00756  -0.00639   0.03518   0.02879   2.07971
   A21        2.14781  -0.00635   0.00746  -0.03003  -0.02257   2.12524
   A22        2.04389   0.00254  -0.00654   0.01526   0.00872   2.05261
   A23        2.22008  -0.00414   0.01640  -0.02516  -0.00876   2.21133
   A24        2.01921   0.00160  -0.00986   0.00990   0.00003   2.01925
   A25        2.15776  -0.00818   0.00800  -0.03833  -0.03033   2.12743
   A26        2.11710   0.00883   0.00333   0.03842   0.04174   2.15884
   A27        2.00833  -0.00065  -0.01133  -0.00009  -0.01142   1.99691
   A28        1.94803   0.00869   0.00497   0.05814   0.06311   2.01113
   A29        1.92431   0.00034   0.00184   0.00021   0.00192   1.92624
   A30        1.92433   0.00034   0.00184   0.00020   0.00192   1.92625
   A31        1.90968   0.00547  -0.00013   0.04072   0.04038   1.95006
   A32        1.89806  -0.00131  -0.00169  -0.01454  -0.01626   1.88180
   A33        1.90360  -0.00248  -0.00095  -0.01365  -0.01481   1.88879
   A34        1.90359  -0.00248  -0.00095  -0.01366  -0.01481   1.88877
    D1        0.00031  -0.00001  -0.00003  -0.00041  -0.00045  -0.00014
    D2        3.14110   0.00002   0.00004   0.00055   0.00058  -3.14150
    D3       -3.14136  -0.00001  -0.00003  -0.00036  -0.00039   3.14143
    D4       -0.00057   0.00002   0.00005   0.00061   0.00064   0.00008
    D5        0.00014   0.00000  -0.00002  -0.00020  -0.00022  -0.00009
    D6        3.14152   0.00000   0.00002   0.00016   0.00017  -3.14150
    D7       -3.14138  -0.00001  -0.00002  -0.00026  -0.00028   3.14152
    D8        0.00000   0.00000   0.00001   0.00010   0.00011   0.00011
    D9       -0.00054   0.00002   0.00006   0.00074   0.00080   0.00026
   D10        3.14125   0.00001   0.00004   0.00046   0.00050  -3.14144
   D11       -3.14132  -0.00001  -0.00002  -0.00023  -0.00026  -3.14157
   D12        0.00047  -0.00001  -0.00003  -0.00052  -0.00056  -0.00009
   D13        0.00033  -0.00001  -0.00004  -0.00046  -0.00049  -0.00016
   D14       -3.14158   0.00000  -0.00001  -0.00007  -0.00008   3.14152
   D15       -3.14144  -0.00001  -0.00002  -0.00018  -0.00021   3.14154
   D16       -0.00017   0.00000   0.00001   0.00020   0.00021   0.00003
   D17        0.00011   0.00000   0.00001   0.00041   0.00042   0.00053
   D18       -3.14148   0.00000   0.00002   0.00033   0.00035  -3.14113
   D19       -3.14130   0.00000   0.00000   0.00013   0.00012  -3.14117
   D20        0.00030   0.00000   0.00000   0.00005   0.00005   0.00035
   D21        0.00011   0.00000  -0.00002  -0.00016  -0.00017  -0.00006
   D22       -3.14154   0.00000   0.00001   0.00003   0.00004  -3.14151
   D23       -3.14116  -0.00001  -0.00004  -0.00054  -0.00059   3.14144
   D24        0.00038  -0.00001  -0.00002  -0.00036  -0.00038  -0.00001
   D25       -0.00034   0.00001   0.00004   0.00049   0.00053   0.00019
   D26        3.14146   0.00000   0.00001   0.00013   0.00013  -3.14159
   D27        3.14131   0.00001   0.00002   0.00030   0.00032  -3.14155
   D28       -0.00007   0.00000  -0.00001  -0.00006  -0.00007  -0.00014
   D29        0.00003   0.00000   0.00000   0.00010   0.00010   0.00013
   D30       -3.14158   0.00000   0.00000   0.00006   0.00006  -3.14152
   D31       -3.14157   0.00000   0.00000   0.00017   0.00018  -3.14139
   D32        0.00001   0.00000   0.00000   0.00014   0.00014   0.00015
   D33       -0.00001   0.00000   0.00000   0.00003   0.00004   0.00002
   D34       -3.14155   0.00000   0.00000   0.00003   0.00003  -3.14152
   D35        3.14157   0.00000   0.00000   0.00000   0.00000   3.14156
   D36        0.00003   0.00000   0.00000  -0.00001  -0.00001   0.00002
   D37        3.14152   0.00000   0.00000   0.00002   0.00002   3.14154
   D38       -0.00013   0.00000   0.00000   0.00003   0.00003  -0.00010
   D39        2.09319   0.00059  -0.00011   0.00904   0.00900   2.10220
   D40       -2.09397  -0.00059   0.00011  -0.00878  -0.00874  -2.10271
   D41       -0.00039   0.00000   0.00000   0.00013   0.00013  -0.00026
   D42       -1.04835   0.00059  -0.00011   0.00903   0.00900  -1.03935
   D43        1.04767  -0.00059   0.00011  -0.00878  -0.00874   1.03893
   D44        3.14126   0.00000   0.00000   0.00012   0.00013   3.14138
         Item               Value     Threshold  Converged?
 Maximum Force            0.019812     0.000450     NO 
 RMS     Force            0.003647     0.000300     NO 
 Maximum Displacement     0.163475     0.001800     NO 
 RMS     Displacement     0.048802     0.001200     NO 
 Predicted change in Energy=-2.822515D-03
 GradGradGradGradGradGradGradGradGradGradGradGradGradGradGradGradGradGrad

                          Input orientation:                          
 ---------------------------------------------------------------------
 Center     Atomic      Atomic             Coordinates (Angstroms)
 Number     Number       Type             X           Y           Z
 ---------------------------------------------------------------------
      1          6           0       -2.000532   -2.827560    0.001833
      2          6           0       -0.614843   -2.846268    0.002698
      3          6           0        0.115317   -1.659109    0.002035
      4          6           0       -0.583137   -0.453325    0.000804
      5          6           0       -1.965974   -0.432541    0.000062
      6          6           0       -2.679350   -1.621085    0.000462
      7          1           0       -2.542685   -3.746012    0.002212
      8          1           0       -0.128307   -3.791197    0.003656
      9          1           0       -0.026401    0.451882    0.000365
     10          1           0       -2.482147    0.500585   -0.000956
     11          1           0       -3.746145   -1.607095   -0.000114
     12          6           0        1.611093   -1.579878    0.002689
     13          6           0        2.381394   -2.807554    0.003440
     14          1           0        1.844804   -3.726259    0.003377
     15          6           0        3.703229   -2.913757    0.004157
     16          8           0        4.507964   -1.825686    0.004289
     17          1           0        5.434956   -2.010196    0.004864
     18          8           0        2.148352   -0.484483    0.002501
     19          6           0        4.431648   -4.222531    0.004820
     20          1           0        5.065896   -4.301948   -0.871428
     21          1           0        5.065374   -4.301367    0.881498
     22          1           0        3.751553   -5.057270    0.004900
 ---------------------------------------------------------------------
                    Distance matrix (angstroms):
                    1          2          3          4          5
     1  C    0.000000
     2  C    1.385816   0.000000
     3  C    2.417043   1.393728   0.000000
     4  C    2.765140   2.393153   1.393469   0.000000
     5  C    2.395269   2.766160   2.415833   1.382993   0.000000
     6  C    1.384333   2.400680   2.794926   2.399535   1.386197
     7  H    1.066528   2.127467   3.379369   3.831659   3.363285
     8  H    2.105665   1.062831   2.145962   3.368718   3.828525
     9  H    3.827784   3.350232   2.115743   1.062711   2.131700
    10  H    3.362813   3.832527   3.378033   2.125132   1.066377
    11  H    2.129954   3.367582   3.861813   3.366869   2.132742
    12  C    3.821066   2.560963   1.497873   2.466530   3.756567
    13  C    4.381972   2.996487   2.540479   3.785610   4.953818
    14  H    3.948959   2.612326   2.695225   4.075169   5.036926
    15  C    5.704413   4.318599   3.800955   4.942335   6.188402
    16  O    6.585156   5.223479   4.395804   5.272826   6.622140
    17  H    7.480279   6.107298   5.331212   6.216213   7.567218
    18  O    4.764793   3.635006   2.347973   2.731667   4.114654
    19  C    6.581709   5.230791   5.020145   6.273357   7.435968
    20  H    7.271232   5.929072   5.679416   6.890883   8.073352
    21  H    7.271378   5.929120   5.679616   6.891206   8.073698
    22  H    6.169125   4.894278   4.976919   6.323438   7.353793
                    6          7          8          9         10
     6  C    0.000000
     7  H    2.129317   0.000000
     8  H    3.349211   2.414801   0.000000
     9  H    3.366797   4.894282   4.244303   0.000000
    10  H    2.130816   4.247029   4.894893   2.456229   0.000000
    11  H    1.066888   2.454238   4.225999   4.251574   2.457643
    12  C    4.290641   4.684656   2.813440   2.609490   4.591617
    13  C    5.197965   5.012710   2.695580   4.052334   5.881992
    14  H    4.989964   4.387534   1.974180   4.578022   6.048863
    15  C    6.512167   6.301118   3.930721   5.023712   7.065170
    16  O    7.190226   7.307483   5.035697   5.074229   7.367035
    17  H    8.123631   8.164301   5.841392   5.990682   8.305695
    18  O    4.959694   5.713440   4.014665   2.367770   4.734119
    19  C    7.571910   6.990593   4.580310   6.459440   8.373077
    20  H    8.242333   7.678725   5.292106   7.020713   8.988604
    21  H    8.242625   7.678809   5.291994   7.021107   8.989023
    22  H    7.291358   6.429373   4.081208   6.680099   8.351575
                   11         12         13         14         15
    11  H    0.000000
    12  C    5.357308   0.000000
    13  C    6.244025   1.449329   0.000000
    14  H    5.979096   2.159068   1.063931   0.000000
    15  C    7.563105   2.481183   1.326095   2.028276   0.000000
    16  O    8.257004   2.907281   2.342299   3.271789   1.353328
[...]
                    6          7          8          9         10
     6  C    0.000000
     7  H    2.134627   0.000000
     8  H    3.364656   2.440312   0.000000
     9  H    3.375134   4.910066   4.250073   0.000000
    10  H    2.136420   4.258559   4.911008   2.464560   0.000000
    11  H    1.070845   2.459800   4.247502   4.262289   2.462061
    12  C    4.281620   4.664168   2.761233   2.639352   4.608645
    13  C    5.164407   4.984502   2.663804   4.053339   5.862125
    14  H    4.962250   4.490618   2.229791   4.468833   5.942770
    15  C    6.448609   6.165244   3.753473   5.100224   7.084775
    16  O    7.097793   7.052470   4.708590   5.259340   7.452223
    17  H    8.021213   7.882389   5.498179   6.182142   8.395309
    18  O    4.966772   5.682727   3.935615   2.456055   4.795777
    19  C    7.498480   6.879636   4.472036   6.488570   8.350428
    20  H    8.302182   7.813329   5.424260   6.993457   8.991825
    21  H    8.010150   7.233632   4.840307   7.150233   8.964968
    22  H    7.235159   6.427596   4.136102   6.630582   8.272130
                   11         12         13         14         15
    11  H    0.000000
    12  C    5.352375   0.000000
    13  C    6.210606   1.469213   0.000000
    14  H    5.949948   2.167844   1.068151   0.000000
    15  C    7.496124   2.505792   1.331020   2.045669   0.000000
    16  O    8.160048   2.925324   2.349256   3.290857   1.362023
    17  H    9.080129   3.866479   3.163987   4.002830   1.960843
    18  O    6.013402   1.223896   2.370151   3.252192   2.965326
    19  C    8.504530   3.887959   2.493462   2.652376   1.497958
    20  H    9.322720   4.500274   3.200850   3.415360   2.130883
    21  H    8.996984   4.513622   3.192188   3.392498   2.134333
    22  H    8.189993   4.099608   2.631351   2.338133   2.142357
                   16         17         18         19         20
    16  O    0.000000
    17  H    0.945583   0.000000
    18  O    2.842191   3.744273   0.000000
    19  C    2.413271   2.449649   4.444222   0.000000
    20  H    2.701061   2.496346   4.867947   1.083869   0.000000
    21  H    2.699473   2.509430   5.043841   1.083936   1.752515
    22  H    3.331258   3.499833   4.875754   1.076645   1.750124
                   21         22
    21  H    0.000000
    22  H    1.751867   0.000000
 Stoichiometry    C10H10O2
 Framework group  C1[X(C10H10O2)]
 Deg. of freedom    60
 Full point group                 C1      NOp   1
 Largest Abelian subgroup         C1      NOp   1
 Largest concise Abelian subgroup C1      NOp   1
                         Standard orientation:                         
 ---------------------------------------------------------------------
 Center     Atomic      Atomic             Coordinates (Angstroms)
 Number     Number       Type             X           Y           Z
 ---------------------------------------------------------------------
      1          6           0       -2.692961    1.511549   -0.308213
      2          6           0       -1.359070    1.135045   -0.247533
      3          6           0       -1.008733   -0.181247    0.036348
      4          6           0       -2.018059   -1.116842    0.253594
      5          6           0       -3.348571   -0.740775    0.203004
      6          6           0       -3.688806    0.576054   -0.077536
      7          1           0       -2.949995    2.525397   -0.536722
      8          1           0       -0.602543    1.865110   -0.443908
      9          1           0       -1.742358   -2.129281    0.455415
     10          1           0       -4.115078   -1.467291    0.377797
     11          1           0       -4.718425    0.867290   -0.119652
     12          6           0        0.410843   -0.647791    0.087868
     13          6           0        1.455344    0.358090    0.324105
     14          1           0        1.146564    1.262653    0.800937
     15          6           0        2.750438    0.248161    0.037291
     16          8           0        3.245161   -0.843897   -0.609056
     17          1           0        4.178079   -0.831907   -0.762833
     18          8           0        0.648835   -1.842853   -0.026622
     19          6           0        3.761337    1.306035    0.358019
     20          1           0        4.537037    0.901166    0.997663
     21          1           0        4.232606    1.667767   -0.548608
     22          1           0        3.311557    2.143412    0.863649
 ---------------------------------------------------------------------
 Rotational constants (GHZ):      2.4531120      0.4731500      0.4070048

 **********************************************************************

            Population analysis using the SCF density.

 **********************************************************************

 Orbital symmetries:
       Occupied  (A) (A) (A) (A) (A) (A) (A) (A) (A) (A) (A) (A)
                 (A) (A) (A) (A) (A) (A) (A) (A) (A) (A) (A) (A)
                 (A) (A) (A) (A) (A) (A) (A) (A) (A) (A) (A) (A)
                 (A) (A) (A) (A) (A) (A) (A)
       Virtual   (A) (A) (A) (A) (A) (A) (A) (A) (A) (A) (A) (A)
                 (A) (A) (A) (A) (A) (A) (A) (A) (A) (A) (A) (A)
                 (A) (A) (A) (A) (A) (A) (A) (A) (A) (A) (A) (A)
                 (A) (A) (A) (A) (A) (A) (A) (A) (A) (A) (A) (A)
                 (A) (A) (A) (A) (A) (A) (A) (A) (A) (A) (A) (A)
                 (A) (A) (A) (A) (A) (A) (A) (A) (A) (A) (A) (A)
                 (A) (A) (A) (A) (A) (A) (A) (A) (A) (A) (A) (A)
                 (A) (A) (A) (A) (A) (A) (A) (A) (A) (A) (A) (A)
                 (A) (A) (A) (A) (A) (A) (A) (A) (A) (A) (A) (A)
                 (A) (A) (A) (A) (A) (A) (A) (A) (A) (A) (A) (A)
                 (A) (A) (A) (A) (A) (A) (A) (A) (A) (A) (A) (A)
                 (A) (A) (A) (A) (A) (A) (A) (A) (A) (A) (A)
 The electronic state is 1-A.
 Alpha  occ. eigenvalues --  -20.59435 -20.52847 -11.34459 -11.33629 -11.25966
 Alpha  occ. eigenvalues --  -11.24897 -11.24773 -11.24637 -11.24213 -11.24048
 Alpha  occ. eigenvalues --  -11.23910 -11.22916  -1.42941  -1.38239  -1.16931
 Alpha  occ. eigenvalues --   -1.09820  -1.04470  -1.02768  -0.99650  -0.88626
 Alpha  occ. eigenvalues --   -0.84087  -0.81734  -0.76781  -0.72760  -0.68935
 Alpha  occ. eigenvalues --   -0.66451  -0.64132  -0.63411  -0.63088  -0.61590
 Alpha  occ. eigenvalues --   -0.59857  -0.58386  -0.56756  -0.55791  -0.53476
 Alpha  occ. eigenvalues --   -0.52752  -0.51484  -0.49442  -0.48915  -0.40300
 Alpha  occ. eigenvalues --   -0.35181  -0.34324  -0.33887
 Alpha virt. eigenvalues --    0.07996   0.12604   0.13300   0.15056   0.15953
 Alpha virt. eigenvalues --    0.17439   0.18543   0.19304   0.21031   0.21209
 Alpha virt. eigenvalues --    0.23730   0.24820   0.25767   0.29287   0.34711
 Alpha virt. eigenvalues --    0.36624   0.38558   0.41422   0.43428   0.43614
 Alpha virt. eigenvalues --    0.44834   0.45426   0.45473   0.46562   0.47518
 Alpha virt. eigenvalues --    0.51907   0.54916   0.55488   0.57418   0.58027
 Alpha virt. eigenvalues --    0.58754   0.59620   0.59929   0.61203   0.63039
 Alpha virt. eigenvalues --    0.63747   0.64776   0.65161   0.66284   0.66741
 Alpha virt. eigenvalues --    0.68223   0.70699   0.71783   0.73208   0.74923
 Alpha virt. eigenvalues --    0.75508   0.75970   0.78457   0.79455   0.80651
 Alpha virt. eigenvalues --    0.82248   0.82894   0.83079   0.83876   0.84605
 Alpha virt. eigenvalues --    0.85423   0.85891   0.86244   0.90286   0.91327
 Alpha virt. eigenvalues --    0.93464   0.96171   0.98867   1.01380   1.02000
 Alpha virt. eigenvalues --    1.05553   1.07276   1.08362   1.10623   1.11262
 Alpha virt. eigenvalues --    1.12873   1.14792   1.15294   1.18736   1.20445
 Alpha virt. eigenvalues --    1.23186   1.23935   1.27612   1.30812   1.32426
 Alpha virt. eigenvalues --    1.36663   1.47496   1.51550   1.89788   1.94215
 Alpha virt. eigenvalues --    2.47931   2.54020   2.56102   2.57157   2.59104
 Alpha virt. eigenvalues --    2.62357   2.66330   2.67420   2.71417   2.87107
 Alpha virt. eigenvalues --    2.91402   2.93345   2.94727   2.96651   3.01486
 Alpha virt. eigenvalues --    3.03378   3.04617   3.11439   3.12824   3.14104
 Alpha virt. eigenvalues --    3.15493   3.19765   3.22392   3.26469   3.28697
 Alpha virt. eigenvalues --    3.31443   3.33206   3.33792   3.37115   3.45423
 Alpha virt. eigenvalues --    3.49296   3.52201   3.56367   3.61331   3.63651
 Alpha virt. eigenvalues --    3.66548   3.70846   3.72106   3.74056   3.86996
 Alpha virt. eigenvalues --    5.35403   5.43915   5.46061   5.54966   5.58098
 Alpha virt. eigenvalues --    5.71571  24.26498  24.37780  24.49923  24.50995
 Alpha virt. eigenvalues --   24.59454  24.63593  24.77744  24.80426  24.84489
 Alpha virt. eigenvalues --   25.05543  51.55059  51.62739
          Condensed to atoms (all electrons):
              1          2          3          4          5          6
     1  C    5.053558   0.470512  -0.059554  -0.028816  -0.075466   0.500600
     2  C    0.470512   5.072219   0.420029  -0.089683  -0.032371  -0.091455
     3  C   -0.059554   0.420029   5.770980   0.437053  -0.068641  -0.014622
     4  C   -0.028816  -0.089683   0.437053   5.076043   0.449325  -0.080378
     5  C   -0.075466  -0.032371  -0.068641   0.449325   5.088322   0.483591
     6  C    0.500600  -0.091455  -0.014622  -0.080378   0.483591   4.999745
     7  H    0.400186  -0.039116   0.005977  -0.000377   0.005991  -0.039516
     8  H   -0.033534   0.388703  -0.042476   0.005328  -0.000294   0.005092
     9  H   -0.000562   0.005195  -0.042481   0.398317  -0.041852   0.004949
    10  H    0.006043  -0.000274   0.006445  -0.038878   0.400876  -0.041909
    11  H   -0.042583   0.007922  -0.001516   0.007244  -0.042219   0.400455
    12  C    0.005357  -0.025970   0.089427  -0.035734   0.009203   0.001194
    13  C   -0.000927   0.010429  -0.186424   0.012412  -0.000728   0.000131
    14  H    0.000312   0.000318   0.006688  -0.000254  -0.000021  -0.000022
    15  C   -0.000020   0.000800   0.007870  -0.000986   0.000016  -0.000001
    16  O    0.000000   0.000034  -0.000453   0.000001   0.000000   0.000000
    17  H    0.000000  -0.000003   0.000051  -0.000001   0.000000   0.000000
    18  O   -0.000202   0.004722  -0.148012   0.011670   0.000580   0.000033
    19  C    0.000001   0.000124  -0.000875   0.000005   0.000000   0.000000
    20  H    0.000000  -0.000007   0.000023   0.000001   0.000000   0.000000
    21  H    0.000000   0.000014   0.000016  -0.000001   0.000000   0.000000
    22  H    0.000000   0.000011   0.000071   0.000000   0.000000   0.000000
              7          8          9         10         11         12
     1  C    0.400186  -0.033534  -0.000562   0.006043  -0.042583   0.005357
     2  C   -0.039116   0.388703   0.005195  -0.000274   0.007922  -0.025970
     3  C    0.005977  -0.042476  -0.042481   0.006445  -0.001516   0.089427
     4  C   -0.000377   0.005328   0.398317  -0.038878   0.007244  -0.035734
     5  C    0.005991  -0.000294  -0.041852   0.400876  -0.042219   0.009203
     6  C   -0.039516   0.005092   0.004949  -0.041909   0.400455   0.001194
     7  H    0.513358  -0.004144   0.000018  -0.000222  -0.004520  -0.000261
     8  H   -0.004144   0.496463  -0.000233   0.000023  -0.000182  -0.002575
     9  H    0.000018  -0.000233   0.457557  -0.003953  -0.000123  -0.001688
    10  H   -0.000222   0.000023  -0.003953   0.509700  -0.004475  -0.000351
    11  H   -0.004520  -0.000182  -0.000123  -0.004475   0.513515  -0.000023
    12  C   -0.000261  -0.002575  -0.001688  -0.000351  -0.000023   4.792205
    13  C    0.000006   0.007701   0.002777  -0.000001   0.000002   0.095399
    14  H    0.000002   0.000886  -0.000091   0.000002   0.000000  -0.022992
    15  C   -0.000001   0.000094  -0.000125   0.000000   0.000000  -0.023727
    16  O    0.000000  -0.000026  -0.000004   0.000000   0.000000   0.003833
    17  H    0.000000  -0.000001   0.000000   0.000000   0.000000  -0.000456
    18  O    0.000001   0.000138   0.014304  -0.000037   0.000001   0.645884
    19  C    0.000000   0.000064   0.000000   0.000000   0.000000   0.006789
    20  H    0.000000   0.000013   0.000000   0.000000   0.000000  -0.000139
    21  H    0.000000  -0.000045   0.000000   0.000000   0.000000  -0.000364
    22  H    0.000000  -0.000004   0.000000   0.000000   0.000000   0.000156
             13         14         15         16         17         18
     1  C   -0.000927   0.000312  -0.000020   0.000000   0.000000  -0.000202
     2  C    0.010429   0.000318   0.000800   0.000034  -0.000003   0.004722
     3  C   -0.186424   0.006688   0.007870  -0.000453   0.000051  -0.148012
     4  C    0.012412  -0.000254  -0.000986   0.000001  -0.000001   0.011670
     5  C   -0.000728  -0.000021   0.000016   0.000000   0.000000   0.000580
     6  C    0.000131  -0.000022  -0.000001   0.000000   0.000000   0.000033
     7  H    0.000006   0.000002  -0.000001   0.000000   0.000000   0.000001
     8  H    0.007701   0.000886   0.000094  -0.000026  -0.000001   0.000138
     9  H    0.002777  -0.000091  -0.000125  -0.000004   0.000000   0.014304
    10  H   -0.000001   0.000002   0.000000   0.000000   0.000000  -0.000037
    11  H    0.000002   0.000000   0.000000   0.000000   0.000000   0.000001
    12  C    0.095399  -0.022992  -0.023727   0.003833  -0.000456   0.645884
    13  C    6.049937   0.375759   0.331160  -0.107632   0.009862  -0.151530
    14  H    0.375759   0.465837  -0.030691   0.003679  -0.000206   0.002159
    15  C    0.331160  -0.030691   4.952369   0.261011  -0.035903   0.014548
    16  O   -0.107632   0.003679   0.261011   8.363856   0.265337  -0.004448
    17  H    0.009862  -0.000206  -0.035903   0.265337   0.353419   0.000239
    18  O   -0.151530   0.002159   0.014548  -0.004448   0.000239   8.095152
    19  C   -0.091267  -0.008380   0.175400  -0.101566  -0.004251  -0.000033
    20  H    0.000375   0.000386  -0.056338   0.002884   0.001340   0.000043
    21  H   -0.004787   0.000276  -0.054651   0.003739   0.001565   0.000009
    22  H    0.011512   0.003063  -0.044040   0.004451   0.000188   0.000001
             19         20         21         22
     1  C    0.000001   0.000000   0.000000   0.000000
     2  C    0.000124  -0.000007   0.000014   0.000011
     3  C   -0.000875   0.000023   0.000016   0.000071
     4  C    0.000005   0.000001  -0.000001   0.000000
     5  C    0.000000   0.000000   0.000000   0.000000
     6  C    0.000000   0.000000   0.000000   0.000000
     7  H    0.000000   0.000000   0.000000   0.000000
     8  H    0.000064   0.000013  -0.000045  -0.000004
     9  H    0.000000   0.000000   0.000000   0.000000
    10  H    0.000000   0.000000   0.000000   0.000000
    11  H    0.000000   0.000000   0.000000   0.000000
    12  C    0.006789  -0.000139  -0.000364   0.000156
    13  C   -0.091267   0.000375  -0.004787   0.011512
    14  H   -0.008380   0.000386   0.000276   0.003063
    15  C    0.175400  -0.056338  -0.054651  -0.044040
    16  O   -0.101566   0.002884   0.003739   0.004451
    17  H   -0.004251   0.001340   0.001565   0.000188
    18  O   -0.000033   0.000043   0.000009   0.000001
    19  C    5.520426   0.381716   0.383419   0.370691
    20  H    0.381716   0.520403  -0.035772  -0.020289
    21  H    0.383419  -0.035772   0.521570  -0.019189
    22  H    0.370691  -0.020289  -0.019189   0.486772
 Mulliken atomic charges:
              1
     1  C   -0.194906
     2  C   -0.102150
     3  C   -0.179574
     4  C   -0.122292
     5  C   -0.176312
     6  C   -0.127887
     7  H    0.162618
     8  H    0.179010
     9  H    0.207996
    10  H    0.167011
    11  H    0.166503
    12  C    0.464834
    13  C   -0.364166
    14  H    0.203292
    15  C    0.503213
    16  O   -0.694697
    17  H    0.408820
    18  O   -0.485222
    19  C   -0.632264
    20  H    0.205364
    21  H    0.204202
    22  H    0.206608
 Sum of Mulliken atomic charges =   0.00000
 Mulliken charges with hydrogens summed into heavy atoms:
              1
     1  C   -0.032288
     2  C    0.076860
     3  C   -0.179574
     4  C    0.085704
     5  C   -0.009301
     6  C    0.038616
    12  C    0.464834
    13  C   -0.160875
    15  C    0.503213
    16  O   -0.285877
    18  O   -0.485222
    19  C   -0.016090
 Sum of Mulliken charges with hydrogens summed into heavy atoms =   0.00000
 Electronic spatial extent (au):  <R**2>=           2657.4834
 Charge=              0.0000 electrons
 Dipole moment (field-independent basis, Debye):
    X=              2.2474    Y=              4.6747    Z=              0.5228  Tot=              5.2131
 Quadrupole moment (field-independent basis, Debye-Ang):
   XX=            -42.6877   YY=            -74.1646   ZZ=            -74.6951
   XY=              6.9293   XZ=             -0.6365   YZ=             -1.6978
 Traceless Quadrupole moment (field-independent basis, Debye-Ang):
   XX=             21.1614   YY=            -10.3155   ZZ=            -10.8460
   XY=              6.9293   XZ=             -0.6365   YZ=             -1.6978
 Octapole moment (field-independent basis, Debye-Ang**2):
  XXX=            101.2018  YYY=             12.8211  ZZZ=             -3.1874  XYY=             -6.3740
  XXY=              4.4352  XXZ=             -8.2921  XZZ=             18.5771  YZZ=             -3.5305
  YYZ=              0.9891  XYZ=              5.9889
 Hexadecapole moment (field-independent basis, Debye-Ang**3):
 XXXX=          -2187.8447 YYYY=           -580.1194 ZZZZ=           -128.0233 XXXY=            -26.5727
 XXXZ=            -62.1931 YYYX=              8.1976 YYYZ=             -6.1455 ZZZX=            -12.9080
 ZZZY=              4.2935 XXYY=           -541.4874 XXZZ=           -520.0645 YYZZ=           -117.9623
 XXYZ=             -4.8085 YYXZ=              1.3576 ZZXY=             -0.2378
 N-N= 6.358827206398D+02 E-N=-2.522208388683D+03  KE= 5.344768820108D+02
 1|1|UNPC-DESKTOP-K2VF0AK|FOpt|RHF|6-311G|C10H10O2|MELIH|28-Nov-2024|0|
 |# opt hf/6-311g geom=connectivity||Title Card Required||0,1|C,-1.9165
 182103,-2.8170995889,0.3466226833|C,-0.5304842696,-2.7825871665,0.2974
 119086|C,0.1363691805,-1.6002848598,-0.0082262776|C,-0.6088716168,-0.4
 500637973,-0.2589845166|C,-1.9914342846,-0.4852205189,-0.2198211997|C,
 -2.6486012241,-1.6706117053,0.0826322948|H,-2.4178276223,-3.7306726346
 ,0.5920695982|H,0.0206953442,-3.6718436168,0.5194832102|H,-0.090058464
 8,0.4581645713,-0.4774556083|H,-2.5533526636,0.4035603852,-0.420388597
 3|H,-3.7185792222,-1.6979577967,0.1159086154|C,1.6275744198,-1.4994481
 439,-0.048887877|C,2.3935763114,-2.7370142415,-0.2495317499|H,1.875348
 3247,-3.5483988555,-0.7121785526|C,3.6731449022,-2.9431053106,0.053528
 8326|O,4.4163252857,-1.9919525941,0.6844786412|H,5.3160265061,-2.22997
 82057,0.8518371285|O,2.1521123106,-0.3976114066,0.0445842804|C,4.39450
 29449,-4.2247308535,-0.2310001698|H,5.2517675068,-4.0386274995,-0.8675
 814556|H,4.7538639488,-4.6702353473,0.6894902795|H,3.7564788325,-4.936
 9332732,-0.7258302985||Version=IA32W-G09RevA.02|State=1-A|HF=-534.1100
 018|RMSD=6.058e-009|RMSF=1.157e-005|Dipole=0.4047271,-2.0046527,-0.155
 3819|Quadrupole=11.8390873,-3.8485635,-7.9905238,-10.0986431,0.5592228
 ,-1.5279709|PG=C01 [X(C10H10O2)]||@


 IT TAKES GREATER CHARACTER TO CARRY OFF GOOD FORTUNE THAN BAD.
                     FRENCH PROVERB.
 Job cpu time:  0 days  0 hours 19 minutes 30.0 seconds.
 File lengths (MBytes):  RWF=     27 Int=      0 D2E=      0 Chk=      3 Scr=      1
 Normal termination of Gaussian 09 at Thu Nov 28 00:29:27 2024.
