 Entering Link 1 = C:\G09W\l1.exe PID=     18488.
  
 Copyright (c) 1988,1990,1992,1993,1995,1998,2003,2009, Gaussian, Inc.
                  All Rights Reserved.
  
 This is part of the Gaussian(R) 09 program.  It is based on
 the Gaussian(R) 03 system (copyright 2003, Gaussian, Inc.),
 the Gaussian(R) 98 system (copyright 1998, Gaussian, Inc.),
 the Gaussian(R) 94 system (copyright 1995, Gaussian, Inc.),
 the Gaussian 92(TM) system (copyright 1992, Gaussian, Inc.),
 the Gaussian 90(TM) system (copyright 1990, Gaussian, Inc.),
 the Gaussian 88(TM) system (copyright 1988, Gaussian, Inc.),
 the Gaussian 86(TM) system (copyright 1986, Carnegie Mellon
 University), and the Gaussian 82(TM) system (copyright 1983,
 Carnegie Mellon University). Gaussian is a federally registered
 trademark of Gaussian, Inc.
  
 This software contains proprietary and confidential information,
 including trade secrets, belonging to Gaussian, Inc.
  
 This software is provided under written license and may be
 used, copied, transmitted, or stored only in accord with that
 written license.
  
 The following legend is applicable only to US Government
 contracts under FAR:
  
                    RESTRICTED RIGHTS LEGEND
  
 Use, reproduction and disclosure by the US Government is
 subject to restrictions as set forth in subparagraphs (a)
 and (c) of the Commercial Computer Software - Restricted
 Rights clause in FAR 52.227-19.
  
 Gaussian, Inc.
 340 Quinnipiac St., Bldg. 40, Wallingford CT 06492
  
  
 ---------------------------------------------------------------
 Warning -- This program may not be used in any manner that
 competes with the business of Gaussian, Inc. or will provide
 assistance to any competitor of Gaussian, Inc.  The licensee
 of this program is prohibited from giving any competitor of
 Gaussian, Inc. access to this program.  By using this program,
 the user acknowledges that Gaussian, Inc. is engaged in the
 business of creating and licensing software in the field of
 computational chemistry and represents and warrants to the
 licensee that it is not a competitor of Gaussian, Inc. and that
 it will not use this program in any manner prohibited above.
 ---------------------------------------------------------------
  

 Cite this work as:
 Gaussian 09, Revision A.02,
 M. J. Frisch, G. W. Trucks, H. B. Schlegel, G. E. Scuseria, 
 M. A. Robb, J. R. Cheeseman, G. Scalmani, V. Barone, B. Mennucci, 
 G. A. Petersson, H. Nakatsuji, M. Caricato, X. Li, H. P. Hratchian, 
 A. F. Izmaylov, J. Bloino, G. Zheng, J. L. Sonnenberg, M. Hada, 
 M. Ehara, K. Toyota, R. Fukuda, J. Hasegawa, M. Ishida, T. Nakajima, 
 Y. Honda, O. Kitao, H. Nakai, T. Vreven, J. A. Montgomery, Jr., 
 J. E. Peralta, F. Ogliaro, M. Bearpark, J. J. Heyd, E. Brothers, 
 K. N. Kudin, V. N. Staroverov, R. Kobayashi, J. Normand, 
 K. Raghavachari, A. Rendell, J. C. Burant, S. S. Iyengar, J. Tomasi, 
 M. Cossi, N. Rega, J. M. Millam, M. Klene, J. E. Knox, J. B. Cross, 
 V. Bakken, C. Adamo, J. Jaramillo, R. Gomperts, R. E. Stratmann, 
 O. Yazyev, A. J. Austin, R. Cammi, C. Pomelli, J. W. Ochterski, 
 R. L. Martin, K. Morokuma, V. G. Zakrzewski, G. A. Voth, 
 P. Salvador, J. J. Dannenberg, S. Dapprich, A. D. Daniels, 
 O. Farkas, J. B. Foresman, J. V. Ortiz, J. Cioslowski, 
 and D. J. Fox, Gaussian, Inc., Wallingford CT, 2009.
 
 ******************************************
 Gaussian 09:  IA32W-G09RevA.02 11-Jun-2009
                28-Nov-2024 
 ******************************************
 %chk=C:\G09W\Midterm1\4BAopt2222.chk
 ---------------------------------
 # opt hf/6-311g geom=connectivity
 ---------------------------------
 1/18=20,19=15,38=1,57=2/1,3;
 2/9=110,12=2,17=6,18=5,40=1/2;
 3/5=4,6=6,11=9,16=1,25=1,30=1,71=1/1,2,3;
 4//1;
 5/5=2,38=5/2;
 6/7=2,8=2,9=2,10=2,28=1/1;
 7//1,2,3,16;
 1/18=20,19=15/3(2);
 2/9=110/2;
 99//99;
 2/9=110/2;
 3/5=4,6=6,11=9,16=1,25=1,30=1,71=1/1,2,3;
 4/5=5,16=3/1;
 5/5=2,38=5/2;
 7//1,2,3,16;
 1/18=20,19=15/3(-5);
 2/9=110/2;
 6/7=2,8=2,9=2,10=2,19=2,28=1/1;
 99/9=1/99;
 -------------------
 Title Card Required
 -------------------
 Symbolic Z-matrix:
 Charge =  0 Multiplicity = 1
 C                     1.6192   -1.60655   0.00257 
 C                     2.38666  -2.94169   0.00345 
 H                     1.84806  -3.86625   0.00345 
 C                     3.74183  -2.94965   0.00424 
 O                     4.469    -1.71834   0.00421 
 H                     5.41116  -1.90258   0.00488 
 O                     2.25264  -0.5192    0.00257 
 C                     0.0792   -1.60666   0.00168 
 H                    -0.27793  -2.11081   0.87529 
 H                    -0.27753  -0.59788   0.00115 
 H                    -0.27692  -2.11137  -0.87202 
 C                     4.50131  -4.28935   0.00507 
 C                     5.89643  -4.30027   0.00588 
 C                     3.7945   -5.49183   0.00514 
 C                     6.58449  -5.51344   0.00607 
 H                     6.45337  -3.35208   0.00506 
 C                     4.48262  -6.70546   0.00632 
 H                     2.69492  -5.48341   0.00468 
 C                     5.8774   -6.71645   0.00665 
 H                     7.68414  -5.52213   0.00607 
 H                     3.92506  -7.65341   0.00678 
 H                     6.42013  -7.67287   0.00686 
 

 GradGradGradGradGradGradGradGradGradGradGradGradGradGradGradGradGradGrad
 Berny optimization.
 Initialization pass.
                           ----------------------------
                           !    Initial Parameters    !
                           ! (Angstroms and Degrees)  !
 --------------------------                            --------------------------
 ! Name  Definition              Value          Derivative Info.                !
 --------------------------------------------------------------------------------
 ! R1    R(1,2)                  1.54           estimate D2E/DX2                !
 ! R2    R(1,7)                  1.2584         estimate D2E/DX2                !
 ! R3    R(1,8)                  1.54           estimate D2E/DX2                !
 ! R4    R(2,3)                  1.07           estimate D2E/DX2                !
 ! R5    R(2,4)                  1.3552         estimate D2E/DX2                !
 ! R6    R(4,5)                  1.43           estimate D2E/DX2                !
 ! R7    R(4,12)                 1.54           estimate D2E/DX2                !
 ! R8    R(5,6)                  0.96           estimate D2E/DX2                !
 ! R9    R(8,9)                  1.07           estimate D2E/DX2                !
 ! R10   R(8,10)                 1.07           estimate D2E/DX2                !
 ! R11   R(8,11)                 1.07           estimate D2E/DX2                !
 ! R12   R(12,13)                1.3952         estimate D2E/DX2                !
 ! R13   R(12,14)                1.3948         estimate D2E/DX2                !
 ! R14   R(13,15)                1.3947         estimate D2E/DX2                !
 ! R15   R(13,16)                1.0997         estimate D2E/DX2                !
 ! R16   R(14,17)                1.3951         estimate D2E/DX2                !
 ! R17   R(14,18)                1.0996         estimate D2E/DX2                !
 ! R18   R(15,19)                1.3954         estimate D2E/DX2                !
 ! R19   R(15,20)                1.0997         estimate D2E/DX2                !
 ! R20   R(17,19)                1.3948         estimate D2E/DX2                !
 ! R21   R(17,21)                1.0998         estimate D2E/DX2                !
 ! R22   R(19,22)                1.0997         estimate D2E/DX2                !
 ! A1    A(2,1,7)              119.8865         estimate D2E/DX2                !
 ! A2    A(2,1,8)              119.8865         estimate D2E/DX2                !
 ! A3    A(7,1,8)              120.2269         estimate D2E/DX2                !
 ! A4    A(1,2,3)              119.8865         estimate D2E/DX2                !
 ! A5    A(1,2,4)              120.2269         estimate D2E/DX2                !
 ! A6    A(3,2,4)              119.8865         estimate D2E/DX2                !
 ! A7    A(2,4,5)              120.2284         estimate D2E/DX2                !
 ! A8    A(2,4,12)             119.8851         estimate D2E/DX2                !
 ! A9    A(5,4,12)             119.8865         estimate D2E/DX2                !
 ! A10   A(4,5,6)              109.5            estimate D2E/DX2                !
 ! A11   A(1,8,9)              109.4712         estimate D2E/DX2                !
 ! A12   A(1,8,10)             109.4712         estimate D2E/DX2                !
 ! A13   A(1,8,11)             109.4712         estimate D2E/DX2                !
 ! A14   A(9,8,10)             109.4713         estimate D2E/DX2                !
 ! A15   A(9,8,11)             109.4712         estimate D2E/DX2                !
 ! A16   A(10,8,11)            109.4712         estimate D2E/DX2                !
 ! A17   A(4,12,13)            119.9972         estimate D2E/DX2                !
 ! A18   A(4,12,14)            120.0043         estimate D2E/DX2                !
 ! A19   A(13,12,14)           119.9985         estimate D2E/DX2                !
 ! A20   A(12,13,15)           120.0086         estimate D2E/DX2                !
 ! A21   A(12,13,16)           119.9808         estimate D2E/DX2                !
 ! A22   A(15,13,16)           120.0106         estimate D2E/DX2                !
 ! A23   A(12,14,17)           120.0            estimate D2E/DX2                !
 ! A24   A(12,14,18)           120.008          estimate D2E/DX2                !
 ! A25   A(17,14,18)           119.992          estimate D2E/DX2                !
 ! A26   A(13,15,19)           119.9942         estimate D2E/DX2                !
 ! A27   A(13,15,20)           120.0128         estimate D2E/DX2                !
 ! A28   A(19,15,20)           119.993          estimate D2E/DX2                !
 ! A29   A(14,17,19)           120.0047         estimate D2E/DX2                !
 ! A30   A(14,17,21)           119.984          estimate D2E/DX2                !
 ! A31   A(19,17,21)           120.0113         estimate D2E/DX2                !
 ! A32   A(15,19,17)           119.994          estimate D2E/DX2                !
 ! A33   A(15,19,22)           119.9811         estimate D2E/DX2                !
 ! A34   A(17,19,22)           120.0249         estimate D2E/DX2                !
 ! D1    D(7,1,2,3)            180.0            estimate D2E/DX2                !
 ! D2    D(7,1,2,4)              0.0            estimate D2E/DX2                !
 ! D3    D(8,1,2,3)              0.0            estimate D2E/DX2                !
 ! D4    D(8,1,2,4)            180.0            estimate D2E/DX2                !
 ! D5    D(2,1,8,9)             59.9994         estimate D2E/DX2                !
 ! D6    D(2,1,8,10)           179.9994         estimate D2E/DX2                !
 ! D7    D(2,1,8,11)           -60.0006         estimate D2E/DX2                !
 ! D8    D(7,1,8,9)           -120.0006         estimate D2E/DX2                !
 ! D9    D(7,1,8,10)            -0.0006         estimate D2E/DX2                !
 ! D10   D(7,1,8,11)           119.9994         estimate D2E/DX2                !
 ! D11   D(1,2,4,5)             -0.0017         estimate D2E/DX2                !
 ! D12   D(1,2,4,12)          -179.998          estimate D2E/DX2                !
 ! D13   D(3,2,4,5)            179.9983         estimate D2E/DX2                !
 ! D14   D(3,2,4,12)             0.002          estimate D2E/DX2                !
 ! D15   D(2,4,5,6)            179.9958         estimate D2E/DX2                !
 ! D16   D(12,4,5,6)            -0.0079         estimate D2E/DX2                !
 ! D17   D(2,4,12,13)          180.0            estimate D2E/DX2                !
 ! D18   D(2,4,12,14)           -0.0053         estimate D2E/DX2                !
 ! D19   D(5,4,12,13)            0.0037         estimate D2E/DX2                !
 ! D20   D(5,4,12,14)          179.9985         estimate D2E/DX2                !
 ! D21   D(4,12,13,15)        -179.9729         estimate D2E/DX2                !
 ! D22   D(4,12,13,16)          -0.052          estimate D2E/DX2                !
 ! D23   D(14,12,13,15)          0.0323         estimate D2E/DX2                !
 ! D24   D(14,12,13,16)        179.9532         estimate D2E/DX2                !
 ! D25   D(4,12,14,17)        -179.9798         estimate D2E/DX2                !
 ! D26   D(4,12,14,18)          -0.0056         estimate D2E/DX2                !
 ! D27   D(13,12,14,17)          0.0149         estimate D2E/DX2                !
 ! D28   D(13,12,14,18)        179.9892         estimate D2E/DX2                !
 ! D29   D(12,13,15,19)         -0.0568         estimate D2E/DX2                !
 ! D30   D(12,13,15,20)        179.9619         estimate D2E/DX2                !
 ! D31   D(16,13,15,19)       -179.9777         estimate D2E/DX2                !
 ! D32   D(16,13,15,20)          0.041          estimate D2E/DX2                !
 ! D33   D(12,14,17,19)         -0.0376         estimate D2E/DX2                !
 ! D34   D(12,14,17,21)        179.975          estimate D2E/DX2                !
 ! D35   D(18,14,17,19)        179.9881         estimate D2E/DX2                !
 ! D36   D(18,14,17,21)          0.0007         estimate D2E/DX2                !
 ! D37   D(13,15,19,17)          0.0341         estimate D2E/DX2                !
 ! D38   D(13,15,19,22)       -179.9964         estimate D2E/DX2                !
 ! D39   D(20,15,19,17)       -179.9846         estimate D2E/DX2                !
 ! D40   D(20,15,19,22)         -0.0151         estimate D2E/DX2                !
 ! D41   D(14,17,19,15)          0.0131         estimate D2E/DX2                !
 ! D42   D(14,17,19,22)       -179.9563         estimate D2E/DX2                !
 ! D43   D(21,17,19,15)       -179.9995         estimate D2E/DX2                !
 ! D44   D(21,17,19,22)          0.0311         estimate D2E/DX2                !
 --------------------------------------------------------------------------------
 Trust Radius=3.00D-01 FncErr=1.00D-07 GrdErr=1.00D-07
 Number of steps in this run= 110 maximum allowed number of steps= 132.
 GradGradGradGradGradGradGradGradGradGradGradGradGradGradGradGradGradGrad

                          Input orientation:                          
 ---------------------------------------------------------------------
 Center     Atomic      Atomic             Coordinates (Angstroms)
 Number     Number       Type             X           Y           Z
 ---------------------------------------------------------------------
      1          6           0        1.619205   -1.606549    0.002566
      2          6           0        2.386658   -2.941695    0.003453
      3          1           0        1.848059   -3.866255    0.003450
      4          6           0        3.741835   -2.949648    0.004237
      5          8           0        4.469004   -1.718338    0.004209
      6          1           0        5.411159   -1.902577    0.004885
      7          8           0        2.252637   -0.519197    0.002569
      8          6           0        0.079205   -1.606661    0.001678
      9          1           0       -0.277929   -2.110809    0.875286
     10          1           0       -0.277535   -0.597881    0.001147
     11          1           0       -0.276922   -2.111371   -0.872016
     12          6           0        4.501309   -4.289349    0.005074
     13          6           0        5.896426   -4.300267    0.005882
     14          6           0        3.794495   -5.491830    0.005137
     15          6           0        6.584491   -5.513439    0.006070
     16          1           0        6.453372   -3.352083    0.005056
     17          6           0        4.482619   -6.705459    0.006320
     18          1           0        2.694923   -5.483408    0.004680
     19          6           0        5.877401   -6.716452    0.006649
     20          1           0        7.684137   -5.522125    0.006073
     21          1           0        3.925061   -7.653406    0.006785
     22          1           0        6.420133   -7.672871    0.006856
 ---------------------------------------------------------------------
                    Distance matrix (angstroms):
                    1          2          3          4          5
     1  C    0.000000
     2  C    1.540000   0.000000
     3  H    2.271265   1.070000   0.000000
     4  C    2.511867   1.355200   2.103938   0.000000
     5  O    2.851992   2.415112   3.388643   1.430000   0.000000
     6  H    3.803493   3.198026   4.068379   1.970533   0.960000
     7  O    1.258400   2.426202   3.371420   2.850404   2.519965
     8  C    1.540000   2.665832   2.869601   3.901087   4.391221
     9  H    2.148263   2.924122   2.891628   4.197723   4.842126
    10  H    2.148263   3.548435   3.898772   4.656839   4.876993
    11  H    2.148263   2.924131   2.891643   4.197729   4.842113
    12  C    3.937505   2.507573   2.686772   1.540000   2.571214
    13  C    5.054775   3.763535   4.071565   2.542919   2.950236
    14  C    4.452786   2.912936   2.535964   2.542728   3.833303
    15  C    6.318060   4.922975   5.014680   3.828019   4.344892
    16  H    5.139657   4.087368   4.633927   2.741238   2.570377
    17  C    5.847909   4.308013   3.873241   3.828169   4.987140
    18  H    4.023333   2.560339   1.825477   2.741526   4.162105
    19  C    6.651568   5.141409   4.935507   4.330065   5.192758
    20  H    7.219083   5.892530   6.066442   4.707376   4.980550
    21  H    6.471589   4.956502   4.319313   4.707326   5.959942
    22  H    7.736226   6.217151   5.949302   5.429745   6.266050
                    6          7          8          9         10
     6  H    0.000000
     7  O    3.448189   0.000000
     8  C    5.340160   2.430306   0.000000
     9  H    5.759052   3.114262   1.070000   0.000000
    10  H    5.836393   2.531396   1.070000   1.747303   0.000000
    11  H    5.759063   3.114255   1.070000   1.747303   1.747303
    12  C    2.554311   4.389826   5.172217   5.323948   6.038567
    13  C    2.446303   5.251066   6.410584   6.608498   7.198991
    14  C    3.936539   5.206190   5.375680   5.364057   6.366489
    15  C    3.796714   6.611159   7.588260   7.708842   8.440980
    16  H    1.785294   5.066697   6.608821   6.899889   7.272602
    17  C    4.891815   6.575915   6.737048   6.672985   7.743487
    18  H    4.494473   4.983875   4.676661   4.579327   5.718732
    19  C    4.836401   7.179477   7.728458   7.736573   8.678719
    20  H    4.274056   7.384476   8.553705   8.705579   9.361433
    21  H    5.939740   7.327615   7.166154   7.009979   8.212324
    22  H    5.857843   8.279075   8.775324   8.749557   9.742395
                   11         12         13         14         15
    11  H    0.000000
    12  C    5.323942   0.000000
    13  C    6.608494   1.395160   0.000000
    14  C    5.364078   1.394829   2.416183   0.000000
    15  C    7.708702   2.416205   1.394712   2.790080   0.000000
    16  H    6.899672   2.165414   1.099655   3.412938   2.165330
    17  C    6.673106   2.416183   2.789946   1.395138   2.416356
    18  H    4.579420   2.165365   3.413128   1.099604   3.889684
    19  C    7.736569   2.790065   2.416260   2.416236   1.395427
    20  H    8.705328   3.413229   2.165375   3.889760   1.099680
    21  H    7.010214   3.413055   3.889707   2.165516   3.413506
    22  H    8.749471   3.889745   3.413024   3.413344   2.165678
                   16         17         18         19         20
    16  H    0.000000
    17  C    3.889601   0.000000
    18  H    4.320704   2.165471   0.000000
    19  C    3.413316   1.394825   3.412999   0.000000
    20  H    2.494768   3.413209   4.989364   2.165806   0.000000
    21  H    4.989362   1.099761   2.494420   2.165528   4.321228
    22  H    4.320917   2.165606   4.320988   1.099680   2.494678
                   21         22
    21  H    0.000000
    22  H    2.495147   0.000000
 Stoichiometry    C10H10O2
 Framework group  C1[X(C10H10O2)]
 Deg. of freedom    60
 Full point group                 C1      NOp   1
 Largest Abelian subgroup         C1      NOp   1
 Largest concise Abelian subgroup C1      NOp   1
                         Standard orientation:                         
 ---------------------------------------------------------------------
 Center     Atomic      Atomic             Coordinates (Angstroms)
 Number     Number       Type             X           Y           Z
 ---------------------------------------------------------------------
      1          6           0        2.909744   -0.204676    0.001839
      2          6           0        1.406638   -0.539746    0.000952
      3          1           0        1.088095   -1.561230    0.000955
      4          6           0        0.485968    0.454705    0.000168
      5          8           0        0.903531    1.822382    0.000196
      6          1           0        0.131608    2.393114   -0.000480
      7          8           0        3.284374    0.996666    0.001836
      8          6           0        3.949227   -1.340930    0.002727
      9          1           0        3.818358   -1.944737   -0.870881
     10          1           0        4.934298   -0.923155    0.003258
     11          1           0        3.817264   -1.944374    0.876421
     12          6           0       -1.015112    0.110673   -0.000670
     13          6           0       -1.964932    1.132590   -0.001477
     14          6           0       -1.425147   -1.222526   -0.000732
     15          6           0       -3.324458    0.821286   -0.001665
     16          1           0       -1.641345    2.183557   -0.000651
     17          6           0       -2.785049   -1.534094   -0.001916
     18          1           0       -0.676676   -2.028081   -0.000275
     19          6           0       -3.734698   -0.512476   -0.002244
     20          1           0       -4.073174    1.626717   -0.001668
     21          1           0       -3.108049   -2.585353   -0.002380
     22          1           0       -4.806691   -0.757684   -0.002452
 ---------------------------------------------------------------------
 Rotational constants (GHZ):      2.4454225      0.4649218      0.3915828
 Standard basis: 6-311G (5D, 7F)
 There are   186 symmetry adapted basis functions of A   symmetry.
 Integral buffers will be    262144 words long.
 Raffenetti 1 integral format.
 Two-electron integral symmetry is turned on.
   186 basis functions,   362 primitive gaussians,   186 cartesian basis functions
    43 alpha electrons       43 beta electrons
       nuclear repulsion energy       628.9672521423 Hartrees.
 NAtoms=   22 NActive=   22 NUniq=   22 SFac= 7.50D-01 NAtFMM=   80 NAOKFM=F Big=F
 One-electron integrals computed using PRISM.
 NBasis=   186 RedAO= T  NBF=   186
 NBsUse=   186 1.00D-06 NBFU=   186
 Harris functional with IExCor=  205 diagonalized for initial guess.
 ExpMin= 1.03D-01 ExpMax= 8.59D+03 ExpMxC= 1.30D+03 IAcc=1 IRadAn=         1 AccDes= 0.00D+00
 HarFok:  IExCor=  205 AccDes= 0.00D+00 IRadAn=         1 IDoV= 1
 ScaDFX=  1.000000  1.000000  1.000000  1.000000
 FoFCou: FMM=F IPFlag=           0 FMFlag=      100000 FMFlg1=           0
         NFxFlg=           0 DoJE=T BraDBF=F KetDBF=T FulRan=T
         Omega=  0.000000  0.000000  1.000000  0.000000  0.000000 ICntrl=     500 IOpCl=  0
         NMat0=    1 NMatS0=    1 NMatT0=    0 NMatD0=    1 NMtDS0=    0 NMtDT0=    0
         I1Cent=           4 NGrid=           0.
 Petite list used in FoFCou.
 Initial guess orbital symmetries:
       Occupied  (A) (A) (A) (A) (A) (A) (A) (A) (A) (A) (A) (A)
                 (A) (A) (A) (A) (A) (A) (A) (A) (A) (A) (A) (A)
                 (A) (A) (A) (A) (A) (A) (A) (A) (A) (A) (A) (A)
                 (A) (A) (A) (A) (A) (A) (A)
       Virtual   (A) (A) (A) (A) (A) (A) (A) (A) (A) (A) (A) (A)
                 (A) (A) (A) (A) (A) (A) (A) (A) (A) (A) (A) (A)
                 (A) (A) (A) (A) (A) (A) (A) (A) (A) (A) (A) (A)
                 (A) (A) (A) (A) (A) (A) (A) (A) (A) (A) (A) (A)
                 (A) (A) (A) (A) (A) (A) (A) (A) (A) (A) (A) (A)
                 (A) (A) (A) (A) (A) (A) (A) (A) (A) (A) (A) (A)
                 (A) (A) (A) (A) (A) (A) (A) (A) (A) (A) (A) (A)
                 (A) (A) (A) (A) (A) (A) (A) (A) (A) (A) (A) (A)
                 (A) (A) (A) (A) (A) (A) (A) (A) (A) (A) (A) (A)
                 (A) (A) (A) (A) (A) (A) (A) (A) (A) (A) (A) (A)
                 (A) (A) (A) (A) (A) (A) (A) (A) (A) (A) (A) (A)
                 (A) (A) (A) (A) (A) (A) (A) (A) (A) (A) (A)
 The electronic state of the initial guess is 1-A.
 Requested convergence on RMS density matrix=1.00D-08 within 128 cycles.
 Requested convergence on MAX density matrix=1.00D-06.
 Requested convergence on             energy=1.00D-06.
 No special actions if energy rises.
 Integral accuracy reduced to 1.0D-05 until final iterations.
 Initial convergence to 1.0D-05 achieved.  Increase integral accuracy.
 SCF Done:  E(RHF) =  -534.079147925     A.U. after   17 cycles
             Convg  =    0.5719D-08             -V/T =  2.0010

 **********************************************************************

            Population analysis using the SCF density.

 **********************************************************************

 Orbital symmetries:
       Occupied  (A) (A) (A) (A) (A) (A) (A) (A) (A) (A) (A) (A)
                 (A) (A) (A) (A) (A) (A) (A) (A) (A) (A) (A) (A)
                 (A) (A) (A) (A) (A) (A) (A) (A) (A) (A) (A) (A)
                 (A) (A) (A) (A) (A) (A) (A)
       Virtual   (A) (A) (A) (A) (A) (A) (A) (A) (A) (A) (A) (A)
                 (A) (A) (A) (A) (A) (A) (A) (A) (A) (A) (A) (A)
                 (A) (A) (A) (A) (A) (A) (A) (A) (A) (A) (A) (A)
                 (A) (A) (A) (A) (A) (A) (A) (A) (A) (A) (A) (A)
                 (A) (A) (A) (A) (A) (A) (A) (A) (A) (A) (A) (A)
                 (A) (A) (A) (A) (A) (A) (A) (A) (A) (A) (A) (A)
                 (A) (A) (A) (A) (A) (A) (A) (A) (A) (A) (A) (A)
                 (A) (A) (A) (A) (A) (A) (A) (A) (A) (A) (A) (A)
                 (A) (A) (A) (A) (A) (A) (A) (A) (A) (A) (A) (A)
                 (A) (A) (A) (A) (A) (A) (A) (A) (A) (A) (A) (A)
                 (A) (A) (A) (A) (A) (A) (A) (A) (A) (A) (A) (A)
                 (A) (A) (A) (A) (A) (A) (A) (A) (A) (A) (A)
 The electronic state is 1-A.
 Alpha  occ. eigenvalues --  -20.59417 -20.52703 -11.35303 -11.34358 -11.29112
 Alpha  occ. eigenvalues --  -11.27749 -11.27309 -11.27187 -11.27074 -11.26917
 Alpha  occ. eigenvalues --  -11.24677 -11.22913  -1.39879  -1.35333  -1.19053
 Alpha  occ. eigenvalues --   -1.08916  -1.04812  -1.03141  -0.99838  -0.87530
 Alpha  occ. eigenvalues --   -0.85652  -0.80777  -0.76228  -0.72743  -0.68375
 Alpha  occ. eigenvalues --   -0.65936  -0.64704  -0.63705  -0.61999  -0.60345
 Alpha  occ. eigenvalues --   -0.60040  -0.57780  -0.56795  -0.55723  -0.53822
 Alpha  occ. eigenvalues --   -0.52816  -0.51634  -0.51079  -0.47055  -0.39902
 Alpha  occ. eigenvalues --   -0.39140  -0.36551  -0.32462
 Alpha virt. eigenvalues --    0.06401   0.10766   0.13074   0.15451   0.15624
 Alpha virt. eigenvalues --    0.15742   0.17605   0.19649   0.20924   0.21002
 Alpha virt. eigenvalues --    0.23759   0.26628   0.26730   0.29045   0.34182
 Alpha virt. eigenvalues --    0.34409   0.36325   0.37380   0.39153   0.40325
 Alpha virt. eigenvalues --    0.42764   0.45182   0.46341   0.48792   0.48795
 Alpha virt. eigenvalues --    0.51433   0.51967   0.53790   0.54160   0.54440
 Alpha virt. eigenvalues --    0.57957   0.58345   0.58936   0.59964   0.60120
 Alpha virt. eigenvalues --    0.61250   0.61337   0.63557   0.64350   0.65351
 Alpha virt. eigenvalues --    0.68069   0.69219   0.70485   0.70756   0.75421
 Alpha virt. eigenvalues --    0.77140   0.77259   0.78170   0.79170   0.80335
 Alpha virt. eigenvalues --    0.81069   0.81082   0.81816   0.82210   0.82802
 Alpha virt. eigenvalues --    0.83548   0.86462   0.87718   0.91240   0.93717
 Alpha virt. eigenvalues --    0.95293   0.96131   0.97455   1.00549   1.02797
 Alpha virt. eigenvalues --    1.04329   1.06586   1.08667   1.09456   1.10352
 Alpha virt. eigenvalues --    1.11587   1.14944   1.15871   1.16672   1.19197
 Alpha virt. eigenvalues --    1.21899   1.23650   1.27633   1.29979   1.33118
 Alpha virt. eigenvalues --    1.37207   1.48634   1.61351   1.91204   2.02555
 Alpha virt. eigenvalues --    2.44608   2.49391   2.54713   2.56304   2.59479
 Alpha virt. eigenvalues --    2.61535   2.62125   2.69966   2.79113   2.87386
 Alpha virt. eigenvalues --    2.87793   2.90974   2.92886   2.93482   3.00355
 Alpha virt. eigenvalues --    3.03764   3.06729   3.08082   3.11374   3.15601
 Alpha virt. eigenvalues --    3.16236   3.21540   3.22744   3.25019   3.26122
 Alpha virt. eigenvalues --    3.29359   3.30922   3.34064   3.36290   3.44582
 Alpha virt. eigenvalues --    3.47776   3.50524   3.53901   3.59413   3.60923
 Alpha virt. eigenvalues --    3.64058   3.64461   3.68815   3.71029   3.84487
 Alpha virt. eigenvalues --    5.34977   5.43322   5.45506   5.51008   5.60751
 Alpha virt. eigenvalues --    5.79400  24.23279  24.38779  24.47151  24.48243
 Alpha virt. eigenvalues --   24.54441  24.64109  24.73759  24.77386  24.81479
 Alpha virt. eigenvalues --   25.01574  51.56733  51.61175
          Condensed to atoms (all electrons):
              1          2          3          4          5          6
     1  C    4.888152   0.041255  -0.022912  -0.009791   0.005683   0.000064
     2  C    0.041255   6.081154   0.382602   0.341601  -0.118010   0.006509
     3  H   -0.022912   0.382602   0.497221  -0.050226   0.003084  -0.000382
     4  C   -0.009791   0.341601  -0.050226   5.018835   0.306068  -0.027862
     5  O    0.005683  -0.118010   0.003084   0.306068   8.354375   0.260334
     6  H    0.000064   0.006509  -0.000382  -0.027862   0.260334   0.368273
     7  O    0.592321  -0.134451   0.002890   0.015190  -0.024365   0.000479
     8  C    0.141340  -0.172834   0.006999   0.004846  -0.000287   0.000008
     9  H   -0.038811   0.006318   0.000399  -0.000177   0.000012  -0.000001
    10  H   -0.041748   0.011247  -0.000451  -0.000469   0.000014   0.000000
    11  H   -0.038809   0.006317   0.000399  -0.000177   0.000012  -0.000001
    12  C    0.012408  -0.135273  -0.010182   0.025601  -0.106878  -0.003638
    13  C   -0.000321   0.013765   0.001306  -0.034357   0.002801   0.001332
    14  C   -0.000584  -0.007520  -0.002541  -0.017218   0.002441   0.000512
    15  C    0.000006  -0.000414   0.000055   0.013752   0.001079  -0.000210
    16  H   -0.000029   0.001734   0.000093   0.007236  -0.001479   0.008489
    17  C   -0.000062   0.000274   0.000539   0.007594  -0.000041  -0.000035
    18  H    0.000434   0.001313   0.001150  -0.002660  -0.000125   0.000038
    19  C    0.000001   0.000050  -0.000051   0.000730  -0.000028   0.000025
    20  H    0.000000   0.000006   0.000001  -0.000299  -0.000004  -0.000025
    21  H    0.000000   0.000064   0.000019  -0.000278   0.000001   0.000000
    22  H    0.000000   0.000000  -0.000001  -0.000050   0.000000   0.000001
              7          8          9         10         11         12
     1  C    0.592321   0.141340  -0.038811  -0.041748  -0.038809   0.012408
     2  C   -0.134451  -0.172834   0.006318   0.011247   0.006317  -0.135273
     3  H    0.002890   0.006999   0.000399  -0.000451   0.000399  -0.010182
     4  C    0.015190   0.004846  -0.000177  -0.000469  -0.000177   0.025601
     5  O   -0.024365  -0.000287   0.000012   0.000014   0.000012  -0.106878
     6  H    0.000479   0.000008  -0.000001   0.000000  -0.000001  -0.003638
     7  O    8.132743  -0.112285   0.002135   0.010890   0.002135   0.000261
     8  C   -0.112285   5.659501   0.359999   0.367455   0.359998  -0.000454
     9  H    0.002135   0.359999   0.521180  -0.019908  -0.024423   0.000012
    10  H    0.010890   0.367455  -0.019908   0.476387  -0.019908  -0.000001
    11  H    0.002135   0.359998  -0.024423  -0.019908   0.521179   0.000012
    12  C    0.000261  -0.000454   0.000012  -0.000001   0.000012   5.664030
    13  C    0.000043   0.000011  -0.000001   0.000000  -0.000001   0.362700
    14  C   -0.000047  -0.000054   0.000006   0.000004   0.000006   0.476741
    15  C    0.000000   0.000000   0.000000   0.000000   0.000000  -0.058228
    16  H    0.000021   0.000002   0.000000   0.000000   0.000000  -0.079719
    17  C    0.000000  -0.000001   0.000000   0.000000   0.000000  -0.061556
    18  H   -0.000016  -0.000047  -0.000001   0.000003   0.000000  -0.044533
    19  C    0.000000   0.000000   0.000000   0.000000   0.000000  -0.009410
    20  H    0.000000   0.000000   0.000000   0.000000   0.000000   0.005226
    21  H    0.000000   0.000000   0.000000   0.000000   0.000000   0.005995
    22  H    0.000000   0.000000   0.000000   0.000000   0.000000  -0.001736
             13         14         15         16         17         18
     1  C   -0.000321  -0.000584   0.000006  -0.000029  -0.000062   0.000434
     2  C    0.013765  -0.007520  -0.000414   0.001734   0.000274   0.001313
     3  H    0.001306  -0.002541   0.000055   0.000093   0.000539   0.001150
     4  C   -0.034357  -0.017218   0.013752   0.007236   0.007594  -0.002660
     5  O    0.002801   0.002441   0.001079  -0.001479  -0.000041  -0.000125
     6  H    0.001332   0.000512  -0.000210   0.008489  -0.000035   0.000038
     7  O    0.000043  -0.000047   0.000000   0.000021   0.000000  -0.000016
     8  C    0.000011  -0.000054   0.000000   0.000002  -0.000001  -0.000047
     9  H   -0.000001   0.000006   0.000000   0.000000   0.000000  -0.000001
    10  H    0.000000   0.000004   0.000000   0.000000   0.000000   0.000003
    11  H   -0.000001   0.000006   0.000000   0.000000   0.000000   0.000000
    12  C    0.362700   0.476741  -0.058228  -0.079719  -0.061556  -0.044533
    13  C    5.198389  -0.071887   0.444384   0.393431  -0.029998   0.003733
    14  C   -0.071887   5.040928  -0.028979   0.002228   0.464530   0.387281
    15  C    0.444384  -0.028979   5.041943  -0.014482  -0.073516  -0.000292
    16  H    0.393431   0.002228  -0.014482   0.514716  -0.000025  -0.000281
    17  C   -0.029998   0.464530  -0.073516  -0.000025   5.060036  -0.028374
    18  H    0.003733   0.387281  -0.000292  -0.000281  -0.028374   0.486627
    19  C   -0.097840  -0.097813   0.503052   0.004492   0.490034   0.004526
    20  H   -0.036181  -0.000299   0.395183  -0.003459   0.005445   0.000014
    21  H   -0.000312  -0.035750   0.005448   0.000027   0.395376  -0.003276
    22  H    0.008116   0.007871  -0.041182  -0.000173  -0.041928  -0.000141
             19         20         21         22
     1  C    0.000001   0.000000   0.000000   0.000000
     2  C    0.000050   0.000006   0.000064   0.000000
     3  H   -0.000051   0.000001   0.000019  -0.000001
     4  C    0.000730  -0.000299  -0.000278  -0.000050
     5  O   -0.000028  -0.000004   0.000001   0.000000
     6  H    0.000025  -0.000025   0.000000   0.000001
     7  O    0.000000   0.000000   0.000000   0.000000
     8  C    0.000000   0.000000   0.000000   0.000000
     9  H    0.000000   0.000000   0.000000   0.000000
    10  H    0.000000   0.000000   0.000000   0.000000
    11  H    0.000000   0.000000   0.000000   0.000000
    12  C   -0.009410   0.005226   0.005995  -0.001736
    13  C   -0.097840  -0.036181  -0.000312   0.008116
    14  C   -0.097813  -0.000299  -0.035750   0.007871
    15  C    0.503052   0.395183   0.005448  -0.041182
    16  H    0.004492  -0.003459   0.000027  -0.000173
    17  C    0.490034   0.005445   0.395376  -0.041928
    18  H    0.004526   0.000014  -0.003276  -0.000141
    19  C    5.013914  -0.036539  -0.038173   0.397194
    20  H   -0.036539   0.498803  -0.000189  -0.003931
    21  H   -0.038173  -0.000189   0.499415  -0.004014
    22  H    0.397194  -0.003931  -0.004014   0.503338
 Mulliken atomic charges:
              1
     1  C    0.471403
     2  C   -0.325706
     3  H    0.189988
     4  C    0.402111
     5  O   -0.684689
     6  H    0.386093
     7  O   -0.487943
     8  C   -0.614195
     9  H    0.193260
    10  H    0.216487
    11  H    0.193261
    12  C   -0.041378
    13  C   -0.159113
    14  C   -0.119856
    15  C   -0.187599
    16  H    0.167177
    17  C   -0.188294
    18  H    0.194627
    19  C   -0.134166
    20  H    0.176247
    21  H    0.175648
    22  H    0.176637
 Sum of Mulliken atomic charges =   0.00000
 Mulliken charges with hydrogens summed into heavy atoms:
              1
     1  C    0.471403
     2  C   -0.135718
     4  C    0.402111
     5  O   -0.298596
     7  O   -0.487943
     8  C   -0.011188
    12  C   -0.041378
    13  C    0.008063
    14  C    0.074771
    15  C   -0.011352
    17  C   -0.012646
    19  C    0.042472
 Sum of Mulliken charges with hydrogens summed into heavy atoms =   0.00000
 Electronic spatial extent (au):  <R**2>=           2720.8795
 Charge=              0.0000 electrons
 Dipole moment (field-independent basis, Debye):
    X=             -4.9459    Y=             -3.2131    Z=             -0.0017  Tot=              5.8979
 Quadrupole moment (field-independent basis, Debye-Ang):
   XX=            -71.3477   YY=            -64.8108   ZZ=            -76.2997
   XY=            -14.6133   XZ=              0.0024   YZ=             -0.0075
 Traceless Quadrupole moment (field-independent basis, Debye-Ang):
   XX=             -0.5283   YY=              6.0086   ZZ=             -5.4803
   XY=            -14.6133   XZ=              0.0024   YZ=             -0.0075
 Octapole moment (field-independent basis, Debye-Ang**2):
  XXX=            -42.7535  YYY=             11.9262  ZZZ=              0.0317  XYY=            -19.9709
  XXY=            -40.8805  XXZ=             -0.0233  XZZ=             17.6563  YZZ=              4.1208
  YYZ=             -0.0131  XYZ=             -0.0326
 Hexadecapole moment (field-independent basis, Debye-Ang**3):
 XXXX=          -2812.6237 YYYY=           -550.8339 ZZZZ=            -88.2865 XXXY=           -114.2917
 XXXZ=             -0.7735 YYYX=             -8.0299 YYYZ=              0.0217 ZZZX=             -0.9476
 ZZZY=              0.0194 XXYY=           -596.9137 XXZZ=           -545.5591 YYZZ=           -124.0178
 XXYZ=             -0.0327 YYXZ=             -0.2898 ZZXY=             -0.7740
 N-N= 6.289672521423D+02 E-N=-2.507082805209D+03  KE= 5.335597144048D+02
 Calling FoFJK, ICntrl=      2127 FMM=F ISym2X=0 I1Cent= 0 IOpClX= 0 NMat=1 NMatS=1 NMatT=0.
 ***** Axes restored to original set *****
 -------------------------------------------------------------------
 Center     Atomic                   Forces (Hartrees/Bohr)
 Number     Number              X              Y              Z
 -------------------------------------------------------------------
      1        6           0.032365089    0.021278715    0.000011326
      2        6           0.006193000    0.051582671   -0.000011784
      3        1          -0.001968127    0.008836135   -0.000004289
      4        6          -0.004770403    0.000216780   -0.000017022
      5        8           0.000552280   -0.060735395    0.000024404
      6        1          -0.013557783    0.010035831   -0.000007358
      7        8          -0.042775592   -0.046360801   -0.000009095
      8        6           0.032101718   -0.002004901    0.000019370
      9        1          -0.004685870   -0.005349147    0.005886371
     10        1           0.000590397    0.004952139   -0.000001266
     11        1          -0.004678954   -0.005352984   -0.005888367
     12        6          -0.006260381    0.034433676    0.000013879
     13        6           0.004766440    0.004604832   -0.000156148
     14        6          -0.009620608   -0.009858682    0.000072651
     15        6           0.012614438   -0.000521542    0.000076508
     16        1          -0.005761736   -0.021680710    0.000056348
     17        6          -0.008635290   -0.006280183   -0.000027518
     18        1           0.025290355   -0.004853728    0.000006038
     19        6           0.008686371   -0.009358233   -0.000044805
     20        1          -0.020567725    0.000400832    0.000001293
     21        1           0.010124135    0.018037991   -0.000017264
     22        1          -0.010001754    0.017976704    0.000016729
 -------------------------------------------------------------------
 Cartesian Forces:  Max     0.060735395 RMS     0.016432785

 GradGradGradGradGradGradGradGradGradGradGradGradGradGradGradGradGradGrad
 Berny optimization.
 Internal  Forces:  Max     0.061590871 RMS     0.013192404
 Search for a local minimum.
 Step number   1 out of a maximum of  110
 All quantities printed in internal units (Hartrees-Bohrs-Radians)
 Mixed Optimization -- RFO/linear search
 Second derivative matrix not updated -- first step.
     Eigenvalues ---    0.00237   0.00237   0.00237   0.00237   0.01295
     Eigenvalues ---    0.01430   0.01459   0.01565   0.02152   0.02153
     Eigenvalues ---    0.02154   0.02155   0.02155   0.02155   0.02156
     Eigenvalues ---    0.02157   0.02681   0.07243   0.07243   0.16000
     Eigenvalues ---    0.16000   0.16000   0.16000   0.16000   0.16000
     Eigenvalues ---    0.16000   0.16000   0.16000   0.16000   0.22000
     Eigenvalues ---    0.22000   0.22000   0.23486   0.25000   0.25000
     Eigenvalues ---    0.25000   0.25000   0.25000   0.28519   0.28519
     Eigenvalues ---    0.28519   0.33709   0.33718   0.33718   0.33720
     Eigenvalues ---    0.33726   0.37230   0.37230   0.37230   0.37230
     Eigenvalues ---    0.40989   0.42121   0.42300   0.46412   0.46453
     Eigenvalues ---    0.46466   0.46497   0.53930   0.55473   0.80209
     Eigenvalues --- 1000.000001000.000001000.000001000.000001000.00000
     Eigenvalues --- 1000.000001000.000001000.000001000.000001000.00000
     Eigenvalues --- 1000.000001000.000001000.000001000.000001000.00000
     Eigenvalues --- 1000.000001000.000001000.000001000.000001000.00000
     Eigenvalues --- 1000.000001000.000001000.000001000.000001000.00000
     Eigenvalues --- 1000.000001000.000001000.000001000.000001000.00000
     Eigenvalues --- 1000.000001000.000001000.000001000.000001000.00000
     Eigenvalues --- 1000.000001000.000001000.000001000.000001000.00000
 RFO step:  Lambda=-4.46938615D-02 EMin= 2.36824121D-03
 Linear search not attempted -- first point.
 Maximum step size (   0.300) exceeded in Quadratic search.
    -- Step size scaled by   0.829
 Iteration  1 RMS(Cart)=  0.08515304 RMS(Int)=  0.00279677
 Iteration  2 RMS(Cart)=  0.00595293 RMS(Int)=  0.00001941
 Iteration  3 RMS(Cart)=  0.00000712 RMS(Int)=  0.00001909
 Iteration  4 RMS(Cart)=  0.00000000 RMS(Int)=  0.00001909
 Variable       Old X    -DE/DX   Delta X   Delta X   Delta X     New X
                                 (Linear)    (Quad)   (Total)
    R1        2.91018  -0.03491   0.00000  -0.08777  -0.08777   2.82241
    R2        2.37803  -0.06159   0.00000  -0.06033  -0.06033   2.31770
    R3        2.91018  -0.02333   0.00000  -0.05865  -0.05865   2.85153
    R4        2.02201  -0.00664   0.00000  -0.01322  -0.01322   2.00879
    R5        2.56096  -0.01698   0.00000  -0.02412  -0.02412   2.53684
    R6        2.70231  -0.05027   0.00000  -0.09172  -0.09172   2.61059
    R7        2.91018  -0.01961   0.00000  -0.04931  -0.04931   2.86087
    R8        1.81414  -0.01523   0.00000  -0.02108  -0.02108   1.79306
    R9        2.02201   0.00889   0.00000   0.01768   0.01768   2.03969
   R10        2.02201   0.00447   0.00000   0.00890   0.00890   2.03090
   R11        2.02201   0.00889   0.00000   0.01768   0.01768   2.03969
   R12        2.63647  -0.00093   0.00000  -0.00097  -0.00093   2.63554
   R13        2.63584   0.00069   0.00000   0.00170   0.00174   2.63758
   R14        2.63562  -0.00954   0.00000  -0.01555  -0.01554   2.62008
   R15        2.07805  -0.02161   0.00000  -0.04694  -0.04694   2.03111
   R16        2.63643  -0.01192   0.00000  -0.01939  -0.01939   2.61703
   R17        2.07795  -0.02533   0.00000  -0.05500  -0.05500   2.02295
   R18        2.63697  -0.01360   0.00000  -0.02277  -0.02280   2.61418
   R19        2.07809  -0.02057   0.00000  -0.04468  -0.04468   2.03341
   R20        2.63584  -0.00926   0.00000  -0.01563  -0.01566   2.62017
   R21        2.07825  -0.02068   0.00000  -0.04493  -0.04493   2.03332
   R22        2.07809  -0.02057   0.00000  -0.04468  -0.04468   2.03341
    A1        2.09241   0.02707   0.00000   0.07618   0.07618   2.16859
    A2        2.09241  -0.02173   0.00000  -0.06116  -0.06116   2.03125
    A3        2.09836  -0.00534   0.00000  -0.01502  -0.01502   2.08334
    A4        2.09241  -0.02542   0.00000  -0.08537  -0.08537   2.00705
    A5        2.09836   0.03841   0.00000   0.12035   0.12035   2.21871
    A6        2.09241  -0.01299   0.00000  -0.03499  -0.03499   2.05743
    A7        2.09838   0.00225   0.00000   0.00635   0.00635   2.10473
    A8        2.09239   0.02175   0.00000   0.06122   0.06122   2.15361
    A9        2.09241  -0.02401   0.00000  -0.06756  -0.06756   2.02485
   A10        1.91114   0.01315   0.00000   0.05328   0.05328   1.96441
   A11        1.91063   0.00261   0.00000   0.01041   0.01041   1.92105
   A12        1.91063  -0.00376   0.00000  -0.01493  -0.01489   1.89574
   A13        1.91063   0.00261   0.00000   0.01041   0.01041   1.92104
   A14        1.91063   0.00070   0.00000   0.00316   0.00320   1.91383
   A15        1.91063  -0.00286   0.00000  -0.01221  -0.01225   1.89838
   A16        1.91063   0.00070   0.00000   0.00316   0.00320   1.91383
   A17        2.09435   0.00053   0.00000   0.00077   0.00073   2.09508
   A18        2.09447   0.01181   0.00000   0.03252   0.03249   2.12696
   A19        2.09437  -0.01233   0.00000  -0.03329  -0.03322   2.06115
   A20        2.09455   0.00633   0.00000   0.02024   0.02028   2.11482
   A21        2.09406   0.00308   0.00000   0.01520   0.01518   2.10924
   A22        2.09458  -0.00941   0.00000  -0.03543  -0.03545   2.05913
   A23        2.09440   0.00390   0.00000   0.01279   0.01282   2.10722
   A24        2.09453   0.00289   0.00000   0.01322   0.01321   2.10774
   A25        2.09426  -0.00679   0.00000  -0.02602  -0.02603   2.06823
   A26        2.09429   0.00080   0.00000   0.00069   0.00066   2.09495
   A27        2.09462  -0.00065   0.00000  -0.00135  -0.00133   2.09329
   A28        2.09427  -0.00015   0.00000   0.00066   0.00067   2.09495
   A29        2.09448   0.00297   0.00000   0.00767   0.00762   2.10210
   A30        2.09411  -0.00192   0.00000  -0.00559  -0.00557   2.08854
   A31        2.09459  -0.00105   0.00000  -0.00207  -0.00205   2.09254
   A32        2.09429  -0.00167   0.00000  -0.00809  -0.00816   2.08613
   A33        2.09407   0.00066   0.00000   0.00332   0.00335   2.09742
   A34        2.09483   0.00102   0.00000   0.00478   0.00481   2.09964
    D1        3.14159   0.00000   0.00000   0.00000   0.00000   3.14159
    D2        0.00000   0.00000   0.00000   0.00000   0.00000   0.00000
    D3        0.00000   0.00000   0.00000   0.00000   0.00000   0.00000
    D4        3.14159   0.00000   0.00000   0.00000   0.00000   3.14159
    D5        1.04719  -0.00016   0.00000  -0.00110  -0.00107   1.04612
    D6        3.14158   0.00000   0.00000   0.00000   0.00000   3.14158
    D7       -1.04721   0.00016   0.00000   0.00110   0.00107  -1.04614
    D8       -2.09441  -0.00016   0.00000  -0.00110  -0.00107  -2.09548
    D9       -0.00001   0.00000   0.00000   0.00000   0.00000  -0.00001
   D10        2.09438   0.00016   0.00000   0.00110   0.00107   2.09545
   D11       -0.00003   0.00000   0.00000   0.00002   0.00002  -0.00001
   D12       -3.14156   0.00000   0.00000  -0.00002  -0.00002  -3.14158
   D13        3.14156   0.00000   0.00000   0.00002   0.00002   3.14158
   D14        0.00003   0.00000   0.00000  -0.00002  -0.00002   0.00001
   D15        3.14152  -0.00001   0.00000  -0.00009  -0.00009   3.14143
   D16       -0.00014   0.00000   0.00000  -0.00004  -0.00004  -0.00018
   D17        3.14159   0.00000   0.00000  -0.00007  -0.00007   3.14152
   D18       -0.00009   0.00000   0.00000  -0.00006  -0.00006  -0.00015
   D19        0.00007  -0.00001   0.00000  -0.00012  -0.00012  -0.00005
   D20        3.14157  -0.00001   0.00000  -0.00010  -0.00010   3.14146
   D21       -3.14112  -0.00002   0.00000  -0.00024  -0.00024  -3.14136
   D22       -0.00091   0.00002   0.00000   0.00027   0.00027  -0.00063
   D23        0.00056  -0.00002   0.00000  -0.00026  -0.00026   0.00031
   D24        3.14078   0.00002   0.00000   0.00025   0.00025   3.14103
   D25       -3.14124  -0.00001   0.00000  -0.00013  -0.00013  -3.14137
   D26       -0.00010   0.00000   0.00000   0.00008   0.00008  -0.00002
   D27        0.00026  -0.00001   0.00000  -0.00011  -0.00011   0.00015
   D28        3.14140   0.00001   0.00000   0.00009   0.00010   3.14150
   D29       -0.00099   0.00003   0.00000   0.00044   0.00044  -0.00055
   D30        3.14093   0.00002   0.00000   0.00028   0.00028   3.14120
   D31       -3.14120  -0.00001   0.00000  -0.00011  -0.00010  -3.14130
   D32        0.00072  -0.00002   0.00000  -0.00027  -0.00026   0.00046
   D33       -0.00066   0.00002   0.00000   0.00029   0.00029  -0.00036
   D34        3.14116   0.00001   0.00000   0.00014   0.00014   3.14130
   D35        3.14138   0.00001   0.00000   0.00008   0.00008   3.14147
   D36        0.00001  -0.00001   0.00000  -0.00007  -0.00007  -0.00006
   D37        0.00060  -0.00002   0.00000  -0.00026  -0.00026   0.00034
   D38       -3.14153  -0.00001   0.00000  -0.00007  -0.00007   3.14158
   D39       -3.14132  -0.00001   0.00000  -0.00010  -0.00010  -3.14142
   D40       -0.00026   0.00001   0.00000   0.00008   0.00009  -0.00018
   D41        0.00023  -0.00001   0.00000  -0.00011  -0.00011   0.00012
   D42       -3.14083  -0.00002   0.00000  -0.00030  -0.00030  -3.14113
   D43       -3.14158   0.00000   0.00000   0.00004   0.00004  -3.14155
   D44        0.00054  -0.00001   0.00000  -0.00015  -0.00015   0.00039
         Item               Value     Threshold  Converged?
 Maximum Force            0.061591     0.000450     NO 
 RMS     Force            0.013192     0.000300     NO 
 Maximum Displacement     0.315718     0.001800     NO 
 RMS     Displacement     0.084678     0.001200     NO 
 Predicted change in Energy=-2.370779D-02
 GradGradGradGradGradGradGradGradGradGradGradGradGradGradGradGradGradGrad

                          Input orientation:                          
 ---------------------------------------------------------------------
 Center     Atomic      Atomic             Coordinates (Angstroms)
 Number     Number       Type             X           Y           Z
 ---------------------------------------------------------------------
      1          6           0        1.627210   -1.541271    0.002549
      2          6           0        2.419630   -2.807281    0.003398
      3          1           0        1.841278   -3.699184    0.003374
      4          6           0        3.756797   -2.926138    0.004168
      5          8           0        4.562379   -1.803872    0.004228
      6          1           0        5.486461   -2.019236    0.004947
      7          8           0        2.120299   -0.418282    0.002452
      8          6           0        0.125607   -1.690119    0.001776
      9          1           0       -0.193333   -2.231750    0.879231
     10          1           0       -0.316290   -0.710464    0.001224
     11          1           0       -0.192373   -2.232305   -0.875683
     12          6           0        4.474828   -4.258936    0.004982
     13          6           0        5.868861   -4.300941    0.005669
     14          6           0        3.780730   -5.469860    0.005163
     15          6           0        6.550428   -5.508339    0.006144
     16          1           0        6.447566   -3.395221    0.005044
     17          6           0        4.461498   -6.675858    0.006181
     18          1           0        2.710375   -5.487487    0.004742
     19          6           0        5.847825   -6.699994    0.006604
     20          1           0        7.626425   -5.517580    0.006309
     21          1           0        3.909076   -7.599207    0.006579
     22          1           0        6.374468   -7.638344    0.006963
 ---------------------------------------------------------------------
                    Distance matrix (angstroms):
                    1          2          3          4          5
     1  C    0.000000
     2  C    1.493557   0.000000
     3  H    2.168505   1.063006   0.000000
     4  C    2.540275   1.342438   2.065626   0.000000
     5  O    2.946893   2.366052   3.316112   1.381464   0.000000
     6  H    3.888737   3.166460   4.013675   1.953000   0.948847
     7  O    1.226475   2.407679   3.292745   2.994574   2.807778
     8  C    1.508963   2.551588   2.641945   3.835791   4.438231
     9  H    2.135347   2.815297   2.657091   4.105050   4.854431
    10  H    2.113631   3.447014   3.686129   4.636728   4.999696
    11  H    2.135347   2.815306   2.657106   4.105056   4.854428
    12  C    3.936323   2.516176   2.692380   1.513909   2.456624
    13  C    5.060375   3.758752   4.072290   2.520100   2.818200
    14  C    4.480119   2.990304   2.626170   2.543835   3.748392
    15  C    6.322635   4.935505   5.044715   3.804227   4.204214
    16  H    5.164588   4.070619   4.616306   2.731351   2.467047
    17  C    5.864911   4.374371   3.965621   3.815365   4.873031
    18  H    4.092172   2.695930   1.988306   2.766859   4.122977
    19  C    6.665285   5.187075   5.005726   4.314441   5.062054
    20  H    7.197335   5.869961   6.064198   4.657210   4.814562
    21  H    6.473447   5.018069   4.414292   4.675550   5.832042
    22  H    7.727275   6.243390   6.005565   5.390464   6.109397
                    6          7          8          9         10
     6  H    0.000000
     7  O    3.727481   0.000000
     8  C    5.370949   2.365664   0.000000
     9  H    5.750617   3.067621   1.079358   0.000000
    10  H    5.948514   2.454045   1.074707   1.760773   0.000000
    11  H    5.750658   3.067614   1.079358   1.754915   1.760773
    12  C    2.457571   4.504935   5.051194   5.163867   5.962087
    13  C    2.313527   5.396923   6.308834   6.464894   7.151758
    14  C    3.849198   5.317469   5.257982   5.200243   6.279923
    15  C    3.647721   6.747944   7.473765   7.548287   8.376840
    16  H    1.678409   5.252372   6.547866   6.798485   7.277203
    17  C    4.768090   6.681204   6.607388   6.494595   7.642853
    18  H    4.442457   5.103434   4.593587   4.449278   5.655144
    19  C    4.694687   7.304408   7.605436   7.564540   8.594813
    20  H    4.100958   7.504684   8.420912   8.526857   9.284132
    21  H    5.798640   7.400367   7.016551   6.811819   8.081369
    22  H    5.688843   8.380172   8.627264   8.551498   9.631292
                   11         12         13         14         15
    11  H    0.000000
    12  C    5.163872   0.000000
    13  C    6.464874   1.394666   0.000000
    14  C    5.200308   1.395748   2.393045   0.000000
    15  C    7.548205   2.422628   1.386486   2.769966   0.000000
    16  H    6.798297   2.153531   1.074816   3.378778   2.115621
    17  C    6.494719   2.416960   2.760598   1.384875   2.393058
    18  H    4.449416   2.150032   3.374008   1.070500   3.840110
    19  C    7.564567   2.800694   2.399146   2.405434   1.383363
    20  H    8.526697   3.393634   2.137578   3.845992   1.076037
    21  H    6.812041   3.387845   3.836576   2.133212   3.368749
    22  H    8.551475   3.876730   3.375484   3.380800   2.137260
                   16         17         18         19         20
    16  H    0.000000
    17  C    3.834977   0.000000
    18  H    4.283010   2.116285   0.000000
    19  C    3.358753   1.386536   3.363595   0.000000
    20  H    2.427780   3.370218   4.916143   2.135773   0.000000
    21  H    4.910950   1.075985   2.428219   2.137131   4.260500
    22  H    4.243753   2.141456   4.248737   1.076036   2.462730
                   21         22
    21  H    0.000000
    22  H    2.465703   0.000000
 Stoichiometry    C10H10O2
 Framework group  C1[X(C10H10O2)]
 Deg. of freedom    60
 Full point group                 C1      NOp   1
 Largest Abelian subgroup         C1      NOp   1
 Largest concise Abelian subgroup C1      NOp   1
                         Standard orientation:                         
 ---------------------------------------------------------------------
 Center     Atomic      Atomic             Coordinates (Angstroms)
 Number     Number       Type             X           Y           Z
 ---------------------------------------------------------------------
      1          6           0        2.936807   -0.165110    0.000031
      2          6           0        1.467439   -0.432823    0.000053
      3          1           0        1.198238   -1.461177    0.000164
      4          6           0        0.478504    0.475003   -0.000051
      5          8           0        0.764771    1.826482   -0.000185
      6          1           0       -0.017087    2.364077   -0.000390
      7          8           0        3.434199    0.955980   -0.000091
      8          6           0        3.838772   -1.374832    0.000168
      9          1           0        3.653007   -1.975413   -0.877219
     10          1           0        4.860355   -1.041122    0.000126
     11          1           0        3.653013   -1.975209    0.877696
     12          6           0       -0.990077    0.107322   -0.000002
     13          6           0       -1.960555    1.108953   -0.000027
     14          6           0       -1.416976   -1.221538   -0.000023
     15          6           0       -3.311915    0.798838    0.000294
     16          1           0       -1.681382    2.146879    0.000505
     17          6           0       -2.766763   -1.531299   -0.000246
     18          1           0       -0.708683   -2.024215   -0.000090
     19          6           0       -3.718846   -0.523320   -0.000018
     20          1           0       -4.043860    1.587579    0.000630
     21          1           0       -3.076672   -2.561687   -0.000532
     22          1           0       -4.767024   -0.766582    0.000241
 ---------------------------------------------------------------------
 Rotational constants (GHZ):      2.4765076      0.4659193      0.3930899
 Standard basis: 6-311G (5D, 7F)
 There are   186 symmetry adapted basis functions of A   symmetry.
 Integral buffers will be    262144 words long.
 Raffenetti 1 integral format.
 Two-electron integral symmetry is turned on.
   186 basis functions,   362 primitive gaussians,   186 cartesian basis functions
    43 alpha electrons       43 beta electrons
       nuclear repulsion energy       633.1134713127 Hartrees.
 NAtoms=   22 NActive=   22 NUniq=   22 SFac= 7.50D-01 NAtFMM=   80 NAOKFM=F Big=F
 One-electron integrals computed using PRISM.
 NBasis=   186 RedAO= T  NBF=   186
 NBsUse=   186 1.00D-06 NBFU=   186
 Initial guess read from the read-write file.
 B after Tr=     0.000000    0.000000    0.000000
         Rot=    1.000000    0.000000    0.000000    0.000000 Ang=   0.00 deg.
 Initial guess orbital symmetries:
       Occupied  (A) (A) (A) (A) (A) (A) (A) (A) (A) (A) (A) (A)
                 (A) (A) (A) (A) (A) (A) (A) (A) (A) (A) (A) (A)
                 (A) (A) (A) (A) (A) (A) (A) (A) (A) (A) (A) (A)
                 (A) (A) (A) (A) (A) (A) (A)
       Virtual   (A) (A) (A) (A) (A) (A) (A) (A) (A) (A) (A) (A)
                 (A) (A) (A) (A) (A) (A) (A) (A) (A) (A) (A) (A)
                 (A) (A) (A) (A) (A) (A) (A) (A) (A) (A) (A) (A)
                 (A) (A) (A) (A) (A) (A) (A) (A) (A) (A) (A) (A)
                 (A) (A) (A) (A) (A) (A) (A) (A) (A) (A) (A) (A)
                 (A) (A) (A) (A) (A) (A) (A) (A) (A) (A) (A) (A)
                 (A) (A) (A) (A) (A) (A) (A) (A) (A) (A) (A) (A)
                 (A) (A) (A) (A) (A) (A) (A) (A) (A) (A) (A) (A)
                 (A) (A) (A) (A) (A) (A) (A) (A) (A) (A) (A) (A)
                 (A) (A) (A) (A) (A) (A) (A) (A) (A) (A) (A) (A)
                 (A) (A) (A) (A) (A) (A) (A) (A) (A) (A) (A) (A)
                 (A) (A) (A) (A) (A) (A) (A) (A) (A) (A) (A)
 Harris functional with IExCor=  205 diagonalized for initial guess.
 ExpMin= 1.03D-01 ExpMax= 8.59D+03 ExpMxC= 1.30D+03 IAcc=1 IRadAn=         1 AccDes= 0.00D+00
 HarFok:  IExCor=  205 AccDes= 0.00D+00 IRadAn=         1 IDoV= 1
 ScaDFX=  1.000000  1.000000  1.000000  1.000000
 FoFCou: FMM=F IPFlag=           0 FMFlag=      100000 FMFlg1=           0
         NFxFlg=           0 DoJE=T BraDBF=F KetDBF=T FulRan=T
         Omega=  0.000000  0.000000  1.000000  0.000000  0.000000 ICntrl=     500 IOpCl=  0
         NMat0=    1 NMatS0=    1 NMatT0=    0 NMatD0=    1 NMtDS0=    0 NMtDT0=    0
         I1Cent=           4 NGrid=           0.
 Petite list used in FoFCou.
 Requested convergence on RMS density matrix=1.00D-08 within 128 cycles.
 Requested convergence on MAX density matrix=1.00D-06.
 Requested convergence on             energy=1.00D-06.
 No special actions if energy rises.
 Integral accuracy reduced to 1.0D-05 until final iterations.
 Initial convergence to 1.0D-05 achieved.  Increase integral accuracy.
 SCF Done:  E(RHF) =  -534.100517398     A.U. after   15 cycles
             Convg  =    0.6107D-08             -V/T =  1.9997
 Calling FoFJK, ICntrl=      2127 FMM=F ISym2X=0 I1Cent= 0 IOpClX= 0 NMat=1 NMatS=1 NMatT=0.
 ***** Axes restored to original set *****
 -------------------------------------------------------------------
 Center     Atomic                   Forces (Hartrees/Bohr)
 Number     Number              X              Y              Z
 -------------------------------------------------------------------
      1        6           0.012369271    0.001562510    0.000006857
      2        6           0.003413137    0.018045035   -0.000004037
      3        1          -0.002218834   -0.001934287   -0.000001832
      4        6           0.002677626   -0.001047525   -0.000004718
      5        8          -0.005827538   -0.018554124    0.000003894
      6        1          -0.006801553    0.008786221   -0.000001843
      7        8          -0.002827129   -0.010710655    0.000001808
      8        6           0.007769402   -0.001068360    0.000004652
      9        1          -0.002514255   -0.001783733    0.000911515
     10        1          -0.001465240    0.000590917   -0.000001005
     11        1          -0.002513200   -0.001784328   -0.000913140
     12        6          -0.004280305    0.012650110    0.000010823
     13        6          -0.000326959    0.000970211   -0.000087741
     14        6          -0.000565068   -0.002008284    0.000040022
     15        6           0.004270346    0.000399997    0.000041812
     16        1           0.001567941   -0.006793213    0.000028576
     17        6          -0.003608774   -0.002002045   -0.000010143
     18        1           0.002607159    0.000262800   -0.000001607
     19        6           0.003222922   -0.004154898   -0.000026648
     20        1          -0.004448297    0.000811599   -0.000000638
     21        1           0.001762676    0.003976813   -0.000009965
     22        1          -0.002263328    0.003785241    0.000013356
 -------------------------------------------------------------------
 Cartesian Forces:  Max     0.018554124 RMS     0.004892524

 GradGradGradGradGradGradGradGradGradGradGradGradGradGradGradGradGradGrad
 Berny optimization.
 Using GEDIIS/GDIIS optimizer.
 Internal  Forces:  Max     0.016923611 RMS     0.004307607
 Search for a local minimum.
 Step number   2 out of a maximum of  110
 All quantities printed in internal units (Hartrees-Bohrs-Radians)
 Mixed Optimization -- RFO/linear search
 Update second derivatives using D2CorX and points    1    2
 DE= -2.14D-02 DEPred=-2.37D-02 R= 9.01D-01
 SS=  1.41D+00  RLast= 3.00D-01 DXNew= 5.0454D-01 9.0000D-01
 Trust test= 9.01D-01 RLast= 3.00D-01 DXMaxT set to 5.05D-01
 Use linear search instead of GDIIS.
     Eigenvalues ---    0.00237   0.00237   0.00237   0.00237   0.01295
     Eigenvalues ---    0.01472   0.01490   0.01544   0.02152   0.02153
     Eigenvalues ---    0.02154   0.02155   0.02155   0.02155   0.02156
     Eigenvalues ---    0.02157   0.02681   0.07152   0.07284   0.14855
     Eigenvalues ---    0.16000   0.16000   0.16000   0.16000   0.16000
     Eigenvalues ---    0.16000   0.16000   0.16000   0.16099   0.21673
     Eigenvalues ---    0.22000   0.22076   0.23044   0.24008   0.25000
     Eigenvalues ---    0.25000   0.25000   0.26830   0.28252   0.28519
     Eigenvalues ---    0.31210   0.33678   0.33711   0.33718   0.33719
     Eigenvalues ---    0.36459   0.37134   0.37230   0.37230   0.38503
     Eigenvalues ---    0.41285   0.42074   0.42749   0.46432   0.46445
     Eigenvalues ---    0.46474   0.47400   0.53607   0.55258   0.80530
     Eigenvalues --- 1000.000001000.000001000.000001000.000001000.00000
     Eigenvalues --- 1000.000001000.000001000.000001000.000001000.00000
     Eigenvalues --- 1000.000001000.000001000.000001000.000001000.00000
     Eigenvalues --- 1000.000001000.000001000.000001000.000001000.00000
     Eigenvalues --- 1000.000001000.000001000.000001000.000001000.00000
     Eigenvalues --- 1000.000001000.000001000.000001000.000001000.00000
     Eigenvalues --- 1000.000001000.000001000.000001000.000001000.00000
     Eigenvalues --- 1000.000001000.000001000.000001000.000001000.00000
 RFO step:  Lambda=-7.19096436D-03 EMin= 2.36824121D-03
 Quartic linear search produced a step of  0.19665.
 Iteration  1 RMS(Cart)=  0.08559829 RMS(Int)=  0.00240174
 Iteration  2 RMS(Cart)=  0.00295591 RMS(Int)=  0.00002111
 Iteration  3 RMS(Cart)=  0.00000147 RMS(Int)=  0.00002110
 Iteration  4 RMS(Cart)=  0.00000000 RMS(Int)=  0.00002110
 Variable       Old X    -DE/DX   Delta X   Delta X   Delta X     New X
                                 (Linear)    (Quad)   (Total)
    R1        2.82241  -0.01692  -0.01726  -0.06306  -0.08032   2.74210
    R2        2.31770  -0.01094  -0.01186  -0.01307  -0.02493   2.29277
    R3        2.85153  -0.00087  -0.01153   0.00045  -0.01108   2.84045
    R4        2.00879   0.00283  -0.00260   0.00972   0.00712   2.01591
    R5        2.53684  -0.01171  -0.00474  -0.02422  -0.02896   2.50788
    R6        2.61059  -0.01530  -0.01804  -0.03825  -0.05629   2.55430
    R7        2.86087  -0.00793  -0.00970  -0.02899  -0.03869   2.82218
    R8        1.79306  -0.00862  -0.00414  -0.01713  -0.02128   1.77178
    R9        2.03969   0.00238   0.00348   0.00638   0.00986   2.04955
   R10        2.03090   0.00114   0.00175   0.00304   0.00478   2.03569
   R11        2.03969   0.00238   0.00348   0.00638   0.00986   2.04955
   R12        2.63554   0.00245  -0.00018   0.00643   0.00627   2.64180
   R13        2.63758   0.00033   0.00034   0.00070   0.00106   2.63864
   R14        2.62008  -0.00069  -0.00306  -0.00063  -0.00369   2.61639
   R15        2.03111  -0.00488  -0.00923  -0.01389  -0.02312   2.00798
   R16        2.61703  -0.00229  -0.00381  -0.00488  -0.00869   2.60835
   R17        2.02295  -0.00261  -0.01082  -0.00551  -0.01633   2.00662
   R18        2.61418  -0.00079  -0.00448  -0.00066  -0.00517   2.60901
   R19        2.03341  -0.00446  -0.00879  -0.01257  -0.02135   2.01206
   R20        2.62017  -0.00028  -0.00308   0.00001  -0.00309   2.61709
   R21        2.03332  -0.00432  -0.00884  -0.01208  -0.02091   2.01240
   R22        2.03341  -0.00441  -0.00879  -0.01241  -0.02119   2.01222
    A1        2.16859   0.00103   0.01498  -0.00071   0.01427   2.18287
    A2        2.03125  -0.00604  -0.01203  -0.02363  -0.03566   1.99560
    A3        2.08334   0.00501  -0.00295   0.02433   0.02138   2.10472
    A4        2.00705  -0.00086  -0.01679   0.00079  -0.01600   1.99105
    A5        2.21871   0.00009   0.02367  -0.00869   0.01498   2.23369
    A6        2.05743   0.00077  -0.00688   0.00791   0.00103   2.05845
    A7        2.10473  -0.01174   0.00125  -0.05494  -0.05369   2.05104
    A8        2.15361  -0.00100   0.01204  -0.00905   0.00299   2.15660
    A9        2.02485   0.01274  -0.01329   0.06399   0.05070   2.07555
   A10        1.96441   0.01257   0.01048   0.08500   0.09547   2.05988
   A11        1.92105   0.00209   0.00205   0.01324   0.01521   1.93626
   A12        1.89574   0.00094  -0.00293   0.00956   0.00655   1.90229
   A13        1.92104   0.00209   0.00205   0.01324   0.01521   1.93625
   A14        1.91383  -0.00126   0.00063  -0.00781  -0.00726   1.90657
   A15        1.89838  -0.00261  -0.00241  -0.02044  -0.02292   1.87546
   A16        1.91383  -0.00126   0.00063  -0.00781  -0.00726   1.90657
   A17        2.09508   0.01147   0.00014   0.05315   0.05327   2.14835
   A18        2.12696  -0.00780   0.00639  -0.03852  -0.03215   2.09480
   A19        2.06115  -0.00366  -0.00653  -0.01463  -0.02112   2.04003
   A20        2.11482   0.00094   0.00399   0.00385   0.00786   2.12268
   A21        2.10924   0.00459   0.00298   0.03190   0.03488   2.14412
   A22        2.05913  -0.00553  -0.00697  -0.03576  -0.04274   2.01639
   A23        2.10722   0.00275   0.00252   0.01261   0.01516   2.12238
   A24        2.10774  -0.00160   0.00260  -0.00964  -0.00705   2.10069
   A25        2.06823  -0.00115  -0.00512  -0.00297  -0.00811   2.06012
   A26        2.09495   0.00096   0.00013   0.00513   0.00523   2.10018
   A27        2.09329  -0.00126  -0.00026  -0.00809  -0.00833   2.08495
   A28        2.09495   0.00031   0.00013   0.00296   0.00310   2.09805
   A29        2.10210   0.00022   0.00150  -0.00062   0.00087   2.10297
   A30        2.08854  -0.00065  -0.00110  -0.00337  -0.00446   2.08408
   A31        2.09254   0.00043  -0.00040   0.00399   0.00359   2.09614
   A32        2.08613  -0.00120  -0.00161  -0.00634  -0.00799   2.07813
   A33        2.09742   0.00072   0.00066   0.00412   0.00480   2.10221
   A34        2.09964   0.00048   0.00095   0.00223   0.00320   2.10284
    D1        3.14159   0.00000   0.00000   0.00002   0.00002  -3.14157
    D2        0.00000   0.00000   0.00000   0.00000   0.00000   0.00000
    D3        0.00000   0.00000   0.00000   0.00001   0.00001   0.00001
    D4        3.14159   0.00000   0.00000  -0.00001  -0.00001   3.14158
    D5        1.04612  -0.00029  -0.00021  -0.00429  -0.00450   1.04162
    D6        3.14158   0.00000   0.00000   0.00001   0.00001   3.14159
    D7       -1.04614   0.00029   0.00021   0.00430   0.00451  -1.04163
    D8       -2.09548  -0.00029  -0.00021  -0.00430  -0.00451  -2.09999
    D9       -0.00001   0.00000   0.00000   0.00000   0.00000  -0.00001
   D10        2.09545   0.00029   0.00021   0.00429   0.00450   2.09996
   D11       -0.00001   0.00000   0.00000   0.00003   0.00003   0.00002
   D12       -3.14158   0.00000   0.00000  -0.00006  -0.00006   3.14155
   D13        3.14158   0.00000   0.00000   0.00001   0.00001   3.14159
   D14        0.00001   0.00000   0.00000  -0.00007  -0.00008  -0.00007
   D15        3.14143  -0.00001  -0.00002  -0.00033  -0.00035   3.14108
   D16       -0.00018   0.00000  -0.00001  -0.00026  -0.00026  -0.00045
   D17        3.14152  -0.00001  -0.00001  -0.00065  -0.00066   3.14086
   D18       -0.00015   0.00000  -0.00001  -0.00058  -0.00060  -0.00075
   D19       -0.00005  -0.00001  -0.00002  -0.00072  -0.00075  -0.00080
   D20        3.14146  -0.00001  -0.00002  -0.00066  -0.00068   3.14078
   D21       -3.14136  -0.00001  -0.00005  -0.00036  -0.00041   3.14142
   D22       -0.00063   0.00001   0.00005   0.00047   0.00054  -0.00009
   D23        0.00031  -0.00001  -0.00005  -0.00042  -0.00047  -0.00016
   D24        3.14103   0.00001   0.00005   0.00041   0.00048   3.14151
   D25       -3.14137  -0.00001  -0.00002  -0.00020  -0.00022  -3.14159
   D26       -0.00002   0.00000   0.00002   0.00009   0.00011   0.00009
   D27        0.00015   0.00000  -0.00002  -0.00014  -0.00016  -0.00001
   D28        3.14150   0.00000   0.00002   0.00016   0.00017  -3.14151
   D29       -0.00055   0.00002   0.00009   0.00069   0.00077   0.00022
   D30        3.14120   0.00001   0.00005   0.00044   0.00050  -3.14149
   D31       -3.14130  -0.00001  -0.00002  -0.00015  -0.00015  -3.14145
   D32        0.00046  -0.00001  -0.00005  -0.00040  -0.00043   0.00003
   D33       -0.00036   0.00001   0.00006   0.00043   0.00048   0.00012
   D34        3.14130   0.00001   0.00003   0.00026   0.00028   3.14158
   D35        3.14147   0.00000   0.00002   0.00014   0.00016  -3.14156
   D36       -0.00006   0.00000  -0.00001  -0.00003  -0.00004  -0.00010
   D37        0.00034  -0.00001  -0.00005  -0.00039  -0.00044  -0.00010
   D38        3.14158   0.00000  -0.00001  -0.00006  -0.00008   3.14151
   D39       -3.14142  -0.00001  -0.00002  -0.00015  -0.00016  -3.14158
   D40       -0.00018   0.00000   0.00002   0.00018   0.00020   0.00003
   D41        0.00012   0.00000  -0.00002  -0.00016  -0.00018  -0.00007
   D42       -3.14113  -0.00001  -0.00006  -0.00049  -0.00055   3.14151
   D43       -3.14155   0.00000   0.00001   0.00001   0.00002  -3.14153
   D44        0.00039  -0.00001  -0.00003  -0.00032  -0.00034   0.00005
         Item               Value     Threshold  Converged?
 Maximum Force            0.016924     0.000450     NO 
 RMS     Force            0.004308     0.000300     NO 
 Maximum Displacement     0.370690     0.001800     NO 
 RMS     Displacement     0.085820     0.001200     NO 
 Predicted change in Energy=-4.244300D-03
 GradGradGradGradGradGradGradGradGradGradGradGradGradGradGradGradGradGrad

                          Input orientation:                          
 ---------------------------------------------------------------------
 Center     Atomic      Atomic             Coordinates (Angstroms)
 Number     Number       Type             X           Y           Z
 ---------------------------------------------------------------------
      1          6           0        1.669358   -1.562350    0.002648
      2          6           0        2.461125   -2.778353    0.003331
      3          1           0        1.882427   -3.674519    0.003036
      4          6           0        3.783364   -2.891981    0.004232
      5          8           0        4.508177   -1.751067    0.004599
      6          1           0        5.442993   -1.823075    0.005656
      7          8           0        2.121147   -0.436323    0.002808
      8          6           0        0.183672   -1.790482    0.001669
      9          1           0       -0.122422   -2.354644    0.875929
     10          1           0       -0.317459   -0.836904    0.001219
     11          1           0       -0.121237   -2.354847   -0.872874
     12          6           0        4.499456   -4.202538    0.004935
     13          6           0        5.893244   -4.310738    0.005025
     14          6           0        3.773540   -5.395321    0.005559
     15          6           0        6.525715   -5.542369    0.005892
     16          1           0        6.536975   -3.465348    0.004514
     17          6           0        4.401729   -6.624363    0.006225
     18          1           0        2.711831   -5.377463    0.005450
     19          6           0        5.784166   -6.706948    0.006437
     20          1           0        7.589611   -5.584681    0.006031
     21          1           0        3.813674   -7.512193    0.006698
     22          1           0        6.268661   -7.655162    0.007025
 ---------------------------------------------------------------------
                    Distance matrix (angstroms):
                    1          2          3          4          5
     1  C    0.000000
     2  C    1.451054   0.000000
     3  H    2.122888   1.066773   0.000000
     4  C    2.497387   1.327113   2.055707   0.000000
     5  O    2.845085   2.290357   3.254878   1.351679   0.000000
     6  H    3.782633   3.131149   4.013163   1.974064   0.937586
     7  O    1.213282   2.366578   3.246984   2.965337   2.725154
     8  C    1.503099   2.482475   2.536802   3.764451   4.324685
     9  H    2.144953   2.759651   2.554101   4.037791   4.750365
    10  H    2.115116   3.389655   3.590482   4.586949   4.911463
    11  H    2.144952   2.759654   2.554099   4.037789   4.750366
    12  C    3.870407   2.486583   2.669765   1.493435   2.451487
    13  C    5.039330   3.758676   4.060964   2.542531   2.910382
    14  C    4.372557   2.927620   2.556848   2.503360   3.717563
    15  C    6.278914   4.915351   5.004897   3.813797   4.294698
    16  H    5.226385   4.133341   4.659245   2.812671   2.656084
    17  C    5.752376   4.307870   3.879236   3.783260   4.874458
    18  H    3.954977   2.611174   1.894185   2.706623   4.046925
    19  C    6.587757   5.145529   4.941579   4.307806   5.117510
    20  H    7.157412   5.846097   6.018362   4.662419   4.918519
    21  H    6.324455   4.923275   4.296216   4.620312   5.802836
    22  H    7.633869   6.187132   5.923224   5.372579   6.160977
                    6          7          8          9         10
     6  H    0.000000
     7  O    3.599688   0.000000
     8  C    5.259423   2.363802   0.000000
     9  H    5.658073   3.078295   1.084575   0.000000
    10  H    5.844259   2.471289   1.077239   1.762581   0.000000
    11  H    5.658202   3.078286   1.084575   1.748804   1.762581
    12  C    2.559708   4.454294   4.944089   5.053226   5.876238
    13  C    2.528080   5.407385   6.241066   6.385375   7.116205
    14  C    3.943096   5.227052   5.087438   5.018145   6.124986
    15  C    3.873685   6.743288   7.368730   7.424034   8.304845
    16  H    1.973286   5.354860   6.570360   6.807393   7.341117
    17  C    4.912900   6.594915   6.415483   6.281308   7.467626
    18  H    4.482512   4.976323   4.388398   4.234166   5.458324
    19  C    4.895775   7.262125   7.452328   7.388258   8.466834
    20  H    4.331009   7.510639   8.321291   8.406266   9.222970
    21  H    5.917832   7.275479   6.776054   6.545894   7.850208
    22  H    5.890243   8.325475   8.451129   8.348438   9.479750
                   11         12         13         14         15
    11  H    0.000000
    12  C    5.053248   0.000000
    13  C    6.385154   1.397981   0.000000
    14  C    5.018507   1.396311   2.381063   0.000000
    15  C    7.423914   2.429171   1.384535   2.756100   0.000000
[...]
                    6          7          8          9         10
     6  H    0.000000
     7  O    3.686768   0.000000
     8  C    5.324052   2.368652   0.000000
     9  H    5.706862   3.080450   1.083186   0.000000
    10  H    5.924068   2.479932   1.076790   1.760780   0.000000
    11  H    5.713752   3.080121   1.083033   1.747399   1.761154
    12  C    2.477176   4.461237   4.971555   5.078787   5.901652
    13  C    2.661847   5.363037   6.092149   6.330673   6.982631
    14  C    3.645279   5.245654   5.311721   5.134920   6.311742
    15  C    3.889913   6.706288   7.260696   7.393295   8.206144
    16  H    2.407073   5.210712   6.214012   6.621177   7.009011
    17  C    4.617141   6.612920   6.620809   6.400872   7.644601
    18  H    4.078737   4.991918   4.792757   4.432822   5.782686
    19  C    4.719493   7.246092   7.491738   7.426507   8.499249
    20  H    4.466866   7.468556   8.137644   8.344932   9.055082
    21  H    5.557280   7.320288   7.108784   6.739063   8.140999
    22  H    5.709595   8.315744   8.503659   8.399409   9.525016
                   11         12         13         14         15
    11  H    0.000000
    12  C    5.083918   0.000000
    13  C    6.093438   1.394640   0.000000
    14  C    5.439580   1.392117   2.401685   0.000000
    15  C    7.201621   2.412876   1.385119   2.772698   0.000000
    16  H    6.195632   2.139928   1.070887   3.373878   2.129090
    17  C    6.659074   2.410521   2.770624   1.385618   2.399508
    18  H    5.024722   2.134242   3.371605   1.069684   3.842220
    19  C    7.450989   2.787946   2.402081   2.403532   1.386972
    20  H    8.030598   3.379803   2.129505   3.842941   1.070275
    21  H    7.159321   3.377211   3.840866   2.129614   3.370498
    22  H    8.428334   3.858255   3.371918   3.373191   2.135071
                   16         17         18         19         20
    16  H    0.000000
    17  C    3.841300   0.000000
    18  H    4.259717   2.131616   0.000000
    19  C    3.369602   1.386916   3.371547   0.000000
    20  H    2.445883   3.370861   4.912487   2.135450   0.000000
    21  H    4.911575   1.070280   2.449961   2.134809   4.257570
    22  H    4.253002   2.135161   4.255444   1.070309   2.461361
                   21         22
    21  H    0.000000
    22  H    2.460601   0.000000
 Stoichiometry    C10H10O2
 Framework group  C1[X(C10H10O2)]
 Deg. of freedom    60
 Full point group                 C1      NOp   1
 Largest Abelian subgroup         C1      NOp   1
 Largest concise Abelian subgroup C1      NOp   1
                         Standard orientation:                         
 ---------------------------------------------------------------------
 Center     Atomic      Atomic             Coordinates (Angstroms)
 Number     Number       Type             X           Y           Z
 ---------------------------------------------------------------------
      1          6           0        2.900253   -0.176450    0.068261
      2          6           0        1.449262   -0.394809    0.154879
      3          1           0        1.147736   -1.360295    0.503275
      4          6           0        0.472885    0.466995   -0.132788
      5          8           0        0.747002    1.760000   -0.464612
      6          1           0        0.047457    2.208874   -0.917178
      7          8           0        3.424588    0.842832   -0.350452
      8          6           0        3.750836   -1.330836    0.532292
      9          1           0        3.539269   -2.220598   -0.048101
     10          1           0        4.791423   -1.076131    0.423758
     11          1           0        3.546057   -1.561910    1.570382
     12          6           0       -0.967821    0.120377   -0.054745
     13          6           0       -1.866315    1.027392    0.506552
     14          6           0       -1.446664   -1.094383   -0.537504
     15          6           0       -3.214115    0.719454    0.591197
     16          1           0       -1.509383    1.956702    0.901244
     17          6           0       -2.795711   -1.399452   -0.454181
     18          1           0       -0.769897   -1.786411   -0.992815
     19          6           0       -3.682107   -0.494447    0.110447
     20          1           0       -3.891630    1.418872    1.035355
     21          1           0       -3.152723   -2.333754   -0.835130
     22          1           0       -4.724043   -0.731055    0.173267
 ---------------------------------------------------------------------
 Rotational constants (GHZ):      2.4410341      0.4663776      0.4107322

 **********************************************************************

            Population analysis using the SCF density.

 **********************************************************************

 Orbital symmetries:
       Occupied  (A) (A) (A) (A) (A) (A) (A) (A) (A) (A) (A) (A)
                 (A) (A) (A) (A) (A) (A) (A) (A) (A) (A) (A) (A)
                 (A) (A) (A) (A) (A) (A) (A) (A) (A) (A) (A) (A)
                 (A) (A) (A) (A) (A) (A) (A)
       Virtual   (A) (A) (A) (A) (A) (A) (A) (A) (A) (A) (A) (A)
                 (A) (A) (A) (A) (A) (A) (A) (A) (A) (A) (A) (A)
                 (A) (A) (A) (A) (A) (A) (A) (A) (A) (A) (A) (A)
                 (A) (A) (A) (A) (A) (A) (A) (A) (A) (A) (A) (A)
                 (A) (A) (A) (A) (A) (A) (A) (A) (A) (A) (A) (A)
                 (A) (A) (A) (A) (A) (A) (A) (A) (A) (A) (A) (A)
                 (A) (A) (A) (A) (A) (A) (A) (A) (A) (A) (A) (A)
                 (A) (A) (A) (A) (A) (A) (A) (A) (A) (A) (A) (A)
                 (A) (A) (A) (A) (A) (A) (A) (A) (A) (A) (A) (A)
                 (A) (A) (A) (A) (A) (A) (A) (A) (A) (A) (A) (A)
                 (A) (A) (A) (A) (A) (A) (A) (A) (A) (A) (A) (A)
                 (A) (A) (A) (A) (A) (A) (A) (A) (A) (A) (A)
 The electronic state is 1-A.
 Alpha  occ. eigenvalues --  -20.59384 -20.52722 -11.34564 -11.33218 -11.27902
 Alpha  occ. eigenvalues --  -11.26658 -11.26544 -11.26335 -11.26193 -11.26124
 Alpha  occ. eigenvalues --  -11.23203 -11.22375  -1.42897  -1.38057  -1.19317
 Alpha  occ. eigenvalues --   -1.09772  -1.05001  -1.04250  -0.99974  -0.88834
 Alpha  occ. eigenvalues --   -0.85918  -0.82647  -0.76963  -0.74294  -0.69516
 Alpha  occ. eigenvalues --   -0.66417  -0.65069  -0.64135  -0.63129  -0.61982
 Alpha  occ. eigenvalues --   -0.60164  -0.58806  -0.56362  -0.55297  -0.54569
 Alpha  occ. eigenvalues --   -0.52989  -0.51802  -0.51098  -0.48279  -0.39909
 Alpha  occ. eigenvalues --   -0.38771  -0.36387  -0.33293
 Alpha virt. eigenvalues --    0.07383   0.10890   0.13905   0.14674   0.15843
 Alpha virt. eigenvalues --    0.16395   0.17813   0.19645   0.20744   0.21498
 Alpha virt. eigenvalues --    0.23219   0.24011   0.25107   0.29021   0.32726
 Alpha virt. eigenvalues --    0.35924   0.38576   0.39089   0.41323   0.42518
 Alpha virt. eigenvalues --    0.43600   0.44036   0.45161   0.48916   0.49947
 Alpha virt. eigenvalues --    0.51421   0.53356   0.55990   0.56215   0.57688
 Alpha virt. eigenvalues --    0.57878   0.58418   0.59906   0.60492   0.61197
 Alpha virt. eigenvalues --    0.61941   0.63073   0.63710   0.64739   0.65897
 Alpha virt. eigenvalues --    0.68509   0.69294   0.71099   0.73304   0.76243
 Alpha virt. eigenvalues --    0.76854   0.77310   0.77787   0.79303   0.79974
 Alpha virt. eigenvalues --    0.80959   0.81248   0.81734   0.82363   0.83068
 Alpha virt. eigenvalues --    0.83745   0.84568   0.86003   0.88447   0.90293
 Alpha virt. eigenvalues --    0.93592   0.94691   0.96016   0.98463   1.00822
 Alpha virt. eigenvalues --    1.03766   1.05416   1.07073   1.10366   1.11143
 Alpha virt. eigenvalues --    1.11943   1.12970   1.15607   1.17662   1.19769
 Alpha virt. eigenvalues --    1.20382   1.22703   1.25019   1.27342   1.29458
 Alpha virt. eigenvalues --    1.35010   1.48004   1.49207   1.91092   1.91971
 Alpha virt. eigenvalues --    2.49457   2.54694   2.56572   2.58385   2.60411
 Alpha virt. eigenvalues --    2.62350   2.65742   2.66320   2.69391   2.84940
 Alpha virt. eigenvalues --    2.91423   2.92443   2.94621   2.95100   3.01025
 Alpha virt. eigenvalues --    3.02769   3.04957   3.10456   3.11192   3.15224
 Alpha virt. eigenvalues --    3.15957   3.18239   3.20804   3.23814   3.26173
 Alpha virt. eigenvalues --    3.30019   3.34270   3.35308   3.37124   3.44294
 Alpha virt. eigenvalues --    3.50502   3.51573   3.55937   3.55962   3.62566
 Alpha virt. eigenvalues --    3.65517   3.68002   3.69506   3.71278   3.86043
 Alpha virt. eigenvalues --    5.38059   5.43157   5.44283   5.53063   5.56338
 Alpha virt. eigenvalues --    5.70961  24.24834  24.40469  24.48654  24.50712
 Alpha virt. eigenvalues --   24.55248  24.66522  24.74974  24.77815  24.83606
 Alpha virt. eigenvalues --   25.03431  51.55830  51.61745
          Condensed to atoms (all electrons):
              1          2          3          4          5          6
     1  C    4.822621   0.037081  -0.026122  -0.015706   0.002914  -0.000167
     2  C    0.037081   6.158769   0.392253   0.307144  -0.111201   0.009099
     3  H   -0.026122   0.392253   0.480147  -0.050901   0.003979  -0.000207
     4  C   -0.015706   0.307144  -0.050901   4.840589   0.271469  -0.037979
     5  O    0.002914  -0.111201   0.003979   0.271469   8.371375   0.260854
     6  H   -0.000167   0.009099  -0.000207  -0.037979   0.260854   0.349896
     7  O    0.620548  -0.144387   0.002577   0.015429  -0.005189   0.000334
     8  C    0.178861  -0.208675   0.006025   0.006570  -0.000093   0.000024
     9  H   -0.036977   0.006345   0.000820  -0.000672  -0.000003  -0.000002
    10  H   -0.046528   0.013406  -0.000207  -0.000620   0.000002  -0.000001
    11  H   -0.038190   0.005971   0.000690  -0.000274   0.000009  -0.000001
    12  C    0.005330  -0.124980  -0.000391   0.237884  -0.117015   0.009201
    13  C   -0.000285  -0.001752   0.000461  -0.059159   0.011586  -0.001911
    14  C    0.000210   0.009054   0.001700  -0.025624   0.004467   0.001079
    15  C    0.000008  -0.000815  -0.000085   0.004173   0.000554  -0.000776
    16  H   -0.000041   0.000524   0.000001   0.000564   0.007360   0.000684
    17  C   -0.000007   0.000509  -0.000274   0.005483  -0.000288  -0.000194
    18  H   -0.000108   0.005073   0.001675  -0.000168   0.000112  -0.000040
    19  C    0.000000   0.000131   0.000029   0.002250   0.000049  -0.000022
    20  H    0.000000   0.000009   0.000001  -0.000353  -0.000012   0.000005
    21  H    0.000000   0.000004   0.000010  -0.000325   0.000001   0.000001
    22  H    0.000000   0.000000   0.000000  -0.000031   0.000001  -0.000001
              7          8          9         10         11         12
     1  C    0.620548   0.178861  -0.036977  -0.046528  -0.038190   0.005330
     2  C   -0.144387  -0.208675   0.006345   0.013406   0.005971  -0.124980
     3  H    0.002577   0.006025   0.000820  -0.000207   0.000690  -0.000391
     4  C    0.015429   0.006570  -0.000672  -0.000620  -0.000274   0.237884
     5  O   -0.005189  -0.000093  -0.000003   0.000002   0.000009  -0.117015
     6  H    0.000334   0.000024  -0.000002  -0.000001  -0.000001   0.009201
     7  O    8.090611  -0.117193   0.002238   0.011559   0.002210   0.000219
     8  C   -0.117193   5.693118   0.359279   0.371387   0.360821  -0.000697
     9  H    0.002238   0.359279   0.524136  -0.019676  -0.025902   0.000074
    10  H    0.011559   0.371387  -0.019676   0.480315  -0.019185   0.000006
    11  H    0.002210   0.360821  -0.025902  -0.019185   0.518468  -0.000019
    12  C    0.000219  -0.000697   0.000074   0.000006  -0.000019   5.539116
    13  C    0.000004   0.000005   0.000002   0.000000  -0.000002   0.423078
    14  C    0.000004   0.000037  -0.000029   0.000001   0.000007   0.439039
    15  C    0.000000   0.000000   0.000000   0.000000   0.000000  -0.074154
    16  H    0.000003   0.000001   0.000000   0.000000   0.000000  -0.053069
    17  C    0.000000   0.000000   0.000000   0.000000   0.000000  -0.066384
    18  H    0.000000   0.000057   0.000003  -0.000002  -0.000005  -0.046395
    19  C    0.000000   0.000000   0.000000   0.000000   0.000000  -0.011392
    20  H    0.000000   0.000000   0.000000   0.000000   0.000000   0.006071
    21  H    0.000000   0.000000   0.000000   0.000000   0.000000   0.006462
    22  H    0.000000   0.000000   0.000000   0.000000   0.000000  -0.001603
             13         14         15         16         17         18
     1  C   -0.000285   0.000210   0.000008  -0.000041  -0.000007  -0.000108
     2  C   -0.001752   0.009054  -0.000815   0.000524   0.000509   0.005073
     3  H    0.000461   0.001700  -0.000085   0.000001  -0.000274   0.001675
     4  C   -0.059159  -0.025624   0.004173   0.000564   0.005483  -0.000168
     5  O    0.011586   0.004467   0.000554   0.007360  -0.000288   0.000112
     6  H   -0.001911   0.001079  -0.000776   0.000684  -0.000194  -0.000040
     7  O    0.000004   0.000004   0.000000   0.000003   0.000000   0.000000
     8  C    0.000005   0.000037   0.000000   0.000001   0.000000   0.000057
     9  H    0.000002  -0.000029   0.000000   0.000000   0.000000   0.000003
    10  H    0.000000   0.000001   0.000000   0.000000   0.000000  -0.000002
    11  H   -0.000002   0.000007   0.000000   0.000000   0.000000  -0.000005
    12  C    0.423078   0.439039  -0.074154  -0.053069  -0.066384  -0.046395
    13  C    5.140775  -0.070937   0.466286   0.395537  -0.029548   0.005591
    14  C   -0.070937   5.046249  -0.034839   0.004189   0.458494   0.395136
    15  C    0.466286  -0.034839   5.044416  -0.024860  -0.073173  -0.000360
    16  H    0.395537   0.004189  -0.024860   0.471256   0.000006  -0.000203
    17  C   -0.029548   0.458494  -0.073173   0.000006   5.056542  -0.031924
    18  H    0.005591   0.395136  -0.000360  -0.000203  -0.031924   0.479045
    19  C   -0.091399  -0.087989   0.498636   0.004441   0.494156   0.004790
    20  H   -0.038744  -0.000261   0.399158  -0.003785   0.005853   0.000020
    21  H   -0.000434  -0.038642   0.006057   0.000021   0.399734  -0.004082
    22  H    0.007811   0.007607  -0.041887  -0.000153  -0.041829  -0.000149
             19         20         21         22
     1  C    0.000000   0.000000   0.000000   0.000000
     2  C    0.000131   0.000009   0.000004   0.000000
     3  H    0.000029   0.000001   0.000010   0.000000
     4  C    0.002250  -0.000353  -0.000325  -0.000031
     5  O    0.000049  -0.000012   0.000001   0.000001
     6  H   -0.000022   0.000005   0.000001  -0.000001
     7  O    0.000000   0.000000   0.000000   0.000000
     8  C    0.000000   0.000000   0.000000   0.000000
     9  H    0.000000   0.000000   0.000000   0.000000
    10  H    0.000000   0.000000   0.000000   0.000000
    11  H    0.000000   0.000000   0.000000   0.000000
    12  C   -0.011392   0.006071   0.006462  -0.001603
    13  C   -0.091399  -0.038744  -0.000434   0.007811
    14  C   -0.087989  -0.000261  -0.038642   0.007607
    15  C    0.498636   0.399158   0.006057  -0.041887
    16  H    0.004441  -0.003785   0.000021  -0.000153
    17  C    0.494156   0.005853   0.399734  -0.041829
    18  H    0.004790   0.000020  -0.004082  -0.000149
    19  C    4.998886  -0.038694  -0.039682   0.401006
    20  H   -0.038694   0.501680  -0.000207  -0.004330
    21  H   -0.039682  -0.000207   0.502992  -0.004396
    22  H    0.401006  -0.004330  -0.004396   0.503590
 Mulliken atomic charges:
              1
     1  C    0.496557
     2  C   -0.353561
     3  H    0.187821
     4  C    0.500258
     5  O   -0.700930
     6  H    0.410124
     7  O   -0.478965
     8  C   -0.649529
     9  H    0.190365
    10  H    0.209544
    11  H    0.195402
    12  C   -0.170380
    13  C   -0.156965
    14  C   -0.108950
    15  C   -0.168339
    16  H    0.197524
    17  C   -0.177155
    18  H    0.191934
    19  C   -0.135196
    20  H    0.173589
    21  H    0.172487
    22  H    0.174365
 Sum of Mulliken atomic charges =   0.00000
 Mulliken charges with hydrogens summed into heavy atoms:
              1
     1  C    0.496557
     2  C   -0.165741
     4  C    0.500258
     5  O   -0.290806
     7  O   -0.478965
     8  C   -0.054219
    12  C   -0.170380
    13  C    0.040560
    14  C    0.082983
    15  C    0.005250
    17  C   -0.004667
    19  C    0.039170
 Sum of Mulliken charges with hydrogens summed into heavy atoms =   0.00000
 Electronic spatial extent (au):  <R**2>=           2653.8175
 Charge=              0.0000 electrons
 Dipole moment (field-independent basis, Debye):
    X=             -5.3582    Y=             -2.7185    Z=              0.4645  Tot=              6.0263
 Quadrupole moment (field-independent basis, Debye-Ang):
   XX=            -74.9887   YY=            -66.9488   ZZ=            -72.4355
   XY=            -12.6450   XZ=              3.7270   YZ=              1.7706
 Traceless Quadrupole moment (field-independent basis, Debye-Ang):
   XX=             -3.5310   YY=              4.5088   ZZ=             -0.9778
   XY=            -12.6450   XZ=              3.7270   YZ=              1.7706
 Octapole moment (field-independent basis, Debye-Ang**2):
  XXX=            -58.7223  YYY=             10.5354  ZZZ=             -4.5435  XYY=            -14.3643
  XXY=            -38.7366  XXZ=             20.8840  XZZ=             10.8248  YZZ=              6.6192
  YYZ=             -6.6389  XYZ=             -4.1975
 Hexadecapole moment (field-independent basis, Debye-Ang**3):
 XXXX=          -2821.5543 YYYY=           -506.5128 ZZZZ=           -166.0419 XXXY=            -91.7530
 XXXZ=             17.2821 YYYX=             -6.3870 YYYZ=             -1.9218 ZZZX=             -1.6769
 ZZZY=             -8.9298 XXYY=           -573.3542 XXZZ=           -527.1485 YYZZ=           -106.6642
 XXYZ=             34.0939 YYXZ=              6.5058 ZZXY=             -3.8268
 N-N= 6.362074921565D+02 E-N=-2.522287910357D+03  KE= 5.344763235630D+02
 1|1|UNPC-DESKTOP-K2VF0AK|FOpt|RHF|6-311G|C10H10O2|MELIH|28-Nov-2024|0|
 |# opt hf/6-311g geom=connectivity||Title Card Required||0,1|C,1.65314
 76967,-1.5681001357,0.0973698997|C,2.4605186964,-2.7892262553,-0.03515
 2527|H,1.9473844238,-3.6414251547,-0.4287410722|C,3.7504952507,-2.9541
 038982,0.2607308925|O,4.5259043865,-1.9031929626,0.6498793237|H,5.3217
 191376,-2.1448908495,1.1014618285|O,2.0567099991,-0.5174650243,0.56905
 51829|C,0.2314967021,-1.6838702194,-0.3893838425|H,-0.2964084994,-2.46
 07785277,0.1500809584|H,-0.275045108,-0.7448304521,-0.2441404146|H,0.2
 086101308,-1.9431940266,-1.4406632689|C,4.4554316475,-4.2534754753,0.1
 320199636|C,5.7371679892,-4.2917700681,-0.4163470796|C,3.8652571103,-5
 .441469993,0.5543374044|C,6.4089374354,-5.4959366953,-0.5477413879|H,6
 .1952332045,-3.3887715009,-0.7650146621|C,4.539978827,-6.6447114413,0.
 4243431339|H,2.8928529333,-5.4199955728,0.999526752|C,5.8121809258,-6.
 6751945635,-0.1271167293|H,7.3872087794,-5.5135455337,-0.9815201882|H,
 4.0784156377,-7.5504741481,0.7590858471|H,6.3325485335,-7.6052466321,-
 0.2260233044||Version=IA32W-G09RevA.02|State=1-A|HF=-534.1094925|RMSD=
 6.062e-009|RMSF=8.713e-006|Dipole=0.613745,-2.2730897,-0.2788299|Quadr
 upole=10.010547,-9.0236988,-0.9868483,1.9419723,1.0875853,-3.2958097|P
 G=C01 [X(C10H10O2)]||@


 DEFINE YOUR TERMS, YOU WILL PERMIT ME AGAIN TO SAY, 
 OR WE SHALL NEVER UNDERSTAND ONE ANOTHER.

                                    -- VOLTAIRE
 Job cpu time:  0 days  0 hours 15 minutes 32.0 seconds.
 File lengths (MBytes):  RWF=     27 Int=      0 D2E=      0 Chk=      3 Scr=      1
 Normal termination of Gaussian 09 at Thu Nov 28 00:46:51 2024.
