 Entering Link 1 = C:\G09W\l1.exe PID=     10632.
  
 Copyright (c) 1988,1990,1992,1993,1995,1998,2003,2009, Gaussian, Inc.
                  All Rights Reserved.
  
 This is part of the Gaussian(R) 09 program.  It is based on
 the Gaussian(R) 03 system (copyright 2003, Gaussian, Inc.),
 the Gaussian(R) 98 system (copyright 1998, Gaussian, Inc.),
 the Gaussian(R) 94 system (copyright 1995, Gaussian, Inc.),
 the Gaussian 92(TM) system (copyright 1992, Gaussian, Inc.),
 the Gaussian 90(TM) system (copyright 1990, Gaussian, Inc.),
 the Gaussian 88(TM) system (copyright 1988, Gaussian, Inc.),
 the Gaussian 86(TM) system (copyright 1986, Carnegie Mellon
 University), and the Gaussian 82(TM) system (copyright 1983,
 Carnegie Mellon University). Gaussian is a federally registered
 trademark of Gaussian, Inc.
  
 This software contains proprietary and confidential information,
 including trade secrets, belonging to Gaussian, Inc.
  
 This software is provided under written license and may be
 used, copied, transmitted, or stored only in accord with that
 written license.
  
 The following legend is applicable only to US Government
 contracts under FAR:
  
                    RESTRICTED RIGHTS LEGEND
  
 Use, reproduction and disclosure by the US Government is
 subject to restrictions as set forth in subparagraphs (a)
 and (c) of the Commercial Computer Software - Restricted
 Rights clause in FAR 52.227-19.
  
 Gaussian, Inc.
 340 Quinnipiac St., Bldg. 40, Wallingford CT 06492
  
  
 ---------------------------------------------------------------
 Warning -- This program may not be used in any manner that
 competes with the business of Gaussian, Inc. or will provide
 assistance to any competitor of Gaussian, Inc.  The licensee
 of this program is prohibited from giving any competitor of
 Gaussian, Inc. access to this program.  By using this program,
 the user acknowledges that Gaussian, Inc. is engaged in the
 business of creating and licensing software in the field of
 computational chemistry and represents and warrants to the
 licensee that it is not a competitor of Gaussian, Inc. and that
 it will not use this program in any manner prohibited above.
 ---------------------------------------------------------------
  

 Cite this work as:
 Gaussian 09, Revision A.02,
 M. J. Frisch, G. W. Trucks, H. B. Schlegel, G. E. Scuseria, 
 M. A. Robb, J. R. Cheeseman, G. Scalmani, V. Barone, B. Mennucci, 
 G. A. Petersson, H. Nakatsuji, M. Caricato, X. Li, H. P. Hratchian, 
 A. F. Izmaylov, J. Bloino, G. Zheng, J. L. Sonnenberg, M. Hada, 
 M. Ehara, K. Toyota, R. Fukuda, J. Hasegawa, M. Ishida, T. Nakajima, 
 Y. Honda, O. Kitao, H. Nakai, T. Vreven, J. A. Montgomery, Jr., 
 J. E. Peralta, F. Ogliaro, M. Bearpark, J. J. Heyd, E. Brothers, 
 K. N. Kudin, V. N. Staroverov, R. Kobayashi, J. Normand, 
 K. Raghavachari, A. Rendell, J. C. Burant, S. S. Iyengar, J. Tomasi, 
 M. Cossi, N. Rega, J. M. Millam, M. Klene, J. E. Knox, J. B. Cross, 
 V. Bakken, C. Adamo, J. Jaramillo, R. Gomperts, R. E. Stratmann, 
 O. Yazyev, A. J. Austin, R. Cammi, C. Pomelli, J. W. Ochterski, 
 R. L. Martin, K. Morokuma, V. G. Zakrzewski, G. A. Voth, 
 P. Salvador, J. J. Dannenberg, S. Dapprich, A. D. Daniels, 
 O. Farkas, J. B. Foresman, J. V. Ortiz, J. Cioslowski, 
 and D. J. Fox, Gaussian, Inc., Wallingford CT, 2009.
 
 ******************************************
 Gaussian 09:  IA32W-G09RevA.02 11-Jun-2009
                27-Nov-2024 
 ******************************************
 %chk=C:\G09W\Midterm1\4BAopt.chk
 ---------------------------
 # opt pm6 geom=connectivity
 ---------------------------
 1/14=-1,18=20,19=15,26=1,38=1,57=2/1,3;
 2/9=110,12=2,17=6,18=5,40=1/2;
 3/5=2,16=1,25=1,41=3900000,71=1/1,2,3;
 4/35=1/1;
 5/5=2,35=1,38=5/2;
 6/7=2,8=2,9=2,10=2,28=1/1;
 7//1,2,3,16;
 1/14=-1,18=20,19=15/3(2);
 2/9=110/2;
 99//99;
 2/9=110/2;
 3/5=2,16=1,25=1,41=3900000,71=1,135=20/1,2,3;
 4/5=5,16=3,35=1/1;
 5/5=2,35=1,38=5/2;
 7//1,2,3,16;
 1/14=-1,18=20,19=15/3(-5);
 2/9=110/2;
 6/7=2,8=2,9=2,10=2,19=2,28=1/1;
 99/9=1/99;
 -------------------
 Title Card Required
 -------------------
 Symbolic Z-matrix:
 Charge =  0 Multiplicity = 1
 C                     1.6192   -1.60655   0.00257 
 C                     2.38666  -2.94169   0.00345 
 H                     1.84806  -3.86625   0.00345 
 C                     3.74183  -2.94965   0.00424 
 O                     4.469    -1.71834   0.00421 
 H                     5.41116  -1.90258   0.00488 
 O                     2.25264  -0.5192    0.00257 
 C                     0.0792   -1.60666   0.00168 
 H                    -0.27793  -2.11081   0.87529 
 H                    -0.27753  -0.59788   0.00115 
 H                    -0.27692  -2.11137  -0.87202 
 C                     4.50131  -4.28935   0.00507 
 C                     5.89643  -4.30027   0.00588 
 C                     3.7945   -5.49183   0.00514 
 C                     6.58449  -5.51344   0.00607 
 H                     6.45337  -3.35208   0.00506 
 C                     4.48262  -6.70546   0.00632 
 H                     2.69492  -5.48341   0.00468 
 C                     5.8774   -6.71645   0.00665 
 H                     7.68414  -5.52213   0.00607 
 H                     3.92506  -7.65341   0.00678 
 H                     6.42013  -7.67287   0.00686 
 

 GradGradGradGradGradGradGradGradGradGradGradGradGradGradGradGradGradGrad
 Berny optimization.
 Initialization pass.
                           ----------------------------
                           !    Initial Parameters    !
                           ! (Angstroms and Degrees)  !
 --------------------------                            --------------------------
 ! Name  Definition              Value          Derivative Info.                !
 --------------------------------------------------------------------------------
 ! R1    R(1,2)                  1.54           estimate D2E/DX2                !
 ! R2    R(1,7)                  1.2584         estimate D2E/DX2                !
 ! R3    R(1,8)                  1.54           estimate D2E/DX2                !
 ! R4    R(2,3)                  1.07           estimate D2E/DX2                !
 ! R5    R(2,4)                  1.3552         estimate D2E/DX2                !
 ! R6    R(4,5)                  1.43           estimate D2E/DX2                !
 ! R7    R(4,12)                 1.54           estimate D2E/DX2                !
 ! R8    R(5,6)                  0.96           estimate D2E/DX2                !
 ! R9    R(8,9)                  1.07           estimate D2E/DX2                !
 ! R10   R(8,10)                 1.07           estimate D2E/DX2                !
 ! R11   R(8,11)                 1.07           estimate D2E/DX2                !
 ! R12   R(12,13)                1.3952         estimate D2E/DX2                !
 ! R13   R(12,14)                1.3948         estimate D2E/DX2                !
 ! R14   R(13,15)                1.3947         estimate D2E/DX2                !
 ! R15   R(13,16)                1.0997         estimate D2E/DX2                !
 ! R16   R(14,17)                1.3951         estimate D2E/DX2                !
 ! R17   R(14,18)                1.0996         estimate D2E/DX2                !
 ! R18   R(15,19)                1.3954         estimate D2E/DX2                !
 ! R19   R(15,20)                1.0997         estimate D2E/DX2                !
 ! R20   R(17,19)                1.3948         estimate D2E/DX2                !
 ! R21   R(17,21)                1.0998         estimate D2E/DX2                !
 ! R22   R(19,22)                1.0997         estimate D2E/DX2                !
 ! A1    A(2,1,7)              119.8865         estimate D2E/DX2                !
 ! A2    A(2,1,8)              119.8865         estimate D2E/DX2                !
 ! A3    A(7,1,8)              120.2269         estimate D2E/DX2                !
 ! A4    A(1,2,3)              119.8865         estimate D2E/DX2                !
 ! A5    A(1,2,4)              120.2269         estimate D2E/DX2                !
 ! A6    A(3,2,4)              119.8865         estimate D2E/DX2                !
 ! A7    A(2,4,5)              120.2284         estimate D2E/DX2                !
 ! A8    A(2,4,12)             119.8851         estimate D2E/DX2                !
 ! A9    A(5,4,12)             119.8865         estimate D2E/DX2                !
 ! A10   A(4,5,6)              109.5            estimate D2E/DX2                !
 ! A11   A(1,8,9)              109.4712         estimate D2E/DX2                !
 ! A12   A(1,8,10)             109.4712         estimate D2E/DX2                !
 ! A13   A(1,8,11)             109.4712         estimate D2E/DX2                !
 ! A14   A(9,8,10)             109.4713         estimate D2E/DX2                !
 ! A15   A(9,8,11)             109.4712         estimate D2E/DX2                !
 ! A16   A(10,8,11)            109.4712         estimate D2E/DX2                !
 ! A17   A(4,12,13)            119.9972         estimate D2E/DX2                !
 ! A18   A(4,12,14)            120.0043         estimate D2E/DX2                !
 ! A19   A(13,12,14)           119.9985         estimate D2E/DX2                !
 ! A20   A(12,13,15)           120.0086         estimate D2E/DX2                !
 ! A21   A(12,13,16)           119.9808         estimate D2E/DX2                !
 ! A22   A(15,13,16)           120.0106         estimate D2E/DX2                !
 ! A23   A(12,14,17)           120.0            estimate D2E/DX2                !
 ! A24   A(12,14,18)           120.008          estimate D2E/DX2                !
 ! A25   A(17,14,18)           119.992          estimate D2E/DX2                !
 ! A26   A(13,15,19)           119.9942         estimate D2E/DX2                !
 ! A27   A(13,15,20)           120.0128         estimate D2E/DX2                !
 ! A28   A(19,15,20)           119.993          estimate D2E/DX2                !
 ! A29   A(14,17,19)           120.0047         estimate D2E/DX2                !
 ! A30   A(14,17,21)           119.984          estimate D2E/DX2                !
 ! A31   A(19,17,21)           120.0113         estimate D2E/DX2                !
 ! A32   A(15,19,17)           119.994          estimate D2E/DX2                !
 ! A33   A(15,19,22)           119.9811         estimate D2E/DX2                !
 ! A34   A(17,19,22)           120.0249         estimate D2E/DX2                !
 ! D1    D(7,1,2,3)            180.0            estimate D2E/DX2                !
 ! D2    D(7,1,2,4)              0.0            estimate D2E/DX2                !
 ! D3    D(8,1,2,3)              0.0            estimate D2E/DX2                !
 ! D4    D(8,1,2,4)            180.0            estimate D2E/DX2                !
 ! D5    D(2,1,8,9)             59.9994         estimate D2E/DX2                !
 ! D6    D(2,1,8,10)           179.9994         estimate D2E/DX2                !
 ! D7    D(2,1,8,11)           -60.0006         estimate D2E/DX2                !
 ! D8    D(7,1,8,9)           -120.0006         estimate D2E/DX2                !
 ! D9    D(7,1,8,10)            -0.0006         estimate D2E/DX2                !
 ! D10   D(7,1,8,11)           119.9994         estimate D2E/DX2                !
 ! D11   D(1,2,4,5)             -0.0017         estimate D2E/DX2                !
 ! D12   D(1,2,4,12)          -179.998          estimate D2E/DX2                !
 ! D13   D(3,2,4,5)            179.9983         estimate D2E/DX2                !
 ! D14   D(3,2,4,12)             0.002          estimate D2E/DX2                !
 ! D15   D(2,4,5,6)            179.9958         estimate D2E/DX2                !
 ! D16   D(12,4,5,6)            -0.0079         estimate D2E/DX2                !
 ! D17   D(2,4,12,13)          180.0            estimate D2E/DX2                !
 ! D18   D(2,4,12,14)           -0.0053         estimate D2E/DX2                !
 ! D19   D(5,4,12,13)            0.0037         estimate D2E/DX2                !
 ! D20   D(5,4,12,14)          179.9985         estimate D2E/DX2                !
 ! D21   D(4,12,13,15)        -179.9729         estimate D2E/DX2                !
 ! D22   D(4,12,13,16)          -0.052          estimate D2E/DX2                !
 ! D23   D(14,12,13,15)          0.0323         estimate D2E/DX2                !
 ! D24   D(14,12,13,16)        179.9532         estimate D2E/DX2                !
 ! D25   D(4,12,14,17)        -179.9798         estimate D2E/DX2                !
 ! D26   D(4,12,14,18)          -0.0056         estimate D2E/DX2                !
 ! D27   D(13,12,14,17)          0.0149         estimate D2E/DX2                !
 ! D28   D(13,12,14,18)        179.9892         estimate D2E/DX2                !
 ! D29   D(12,13,15,19)         -0.0568         estimate D2E/DX2                !
 ! D30   D(12,13,15,20)        179.9619         estimate D2E/DX2                !
 ! D31   D(16,13,15,19)       -179.9777         estimate D2E/DX2                !
 ! D32   D(16,13,15,20)          0.041          estimate D2E/DX2                !
 ! D33   D(12,14,17,19)         -0.0376         estimate D2E/DX2                !
 ! D34   D(12,14,17,21)        179.975          estimate D2E/DX2                !
 ! D35   D(18,14,17,19)        179.9881         estimate D2E/DX2                !
 ! D36   D(18,14,17,21)          0.0007         estimate D2E/DX2                !
 ! D37   D(13,15,19,17)          0.0341         estimate D2E/DX2                !
 ! D38   D(13,15,19,22)       -179.9964         estimate D2E/DX2                !
 ! D39   D(20,15,19,17)       -179.9846         estimate D2E/DX2                !
 ! D40   D(20,15,19,22)         -0.0151         estimate D2E/DX2                !
 ! D41   D(14,17,19,15)          0.0131         estimate D2E/DX2                !
 ! D42   D(14,17,19,22)       -179.9563         estimate D2E/DX2                !
 ! D43   D(21,17,19,15)       -179.9995         estimate D2E/DX2                !
 ! D44   D(21,17,19,22)          0.0311         estimate D2E/DX2                !
 --------------------------------------------------------------------------------
 Trust Radius=3.00D-01 FncErr=1.00D-07 GrdErr=1.00D-07
 Number of steps in this run= 110 maximum allowed number of steps= 132.
 GradGradGradGradGradGradGradGradGradGradGradGradGradGradGradGradGradGrad

                          Input orientation:                          
 ---------------------------------------------------------------------
 Center     Atomic      Atomic             Coordinates (Angstroms)
 Number     Number       Type             X           Y           Z
 ---------------------------------------------------------------------
      1          6           0        1.619205   -1.606549    0.002566
      2          6           0        2.386658   -2.941695    0.003453
      3          1           0        1.848059   -3.866255    0.003450
      4          6           0        3.741835   -2.949648    0.004237
      5          8           0        4.469004   -1.718338    0.004209
      6          1           0        5.411159   -1.902577    0.004885
      7          8           0        2.252637   -0.519197    0.002569
      8          6           0        0.079205   -1.606661    0.001678
      9          1           0       -0.277929   -2.110809    0.875286
     10          1           0       -0.277535   -0.597881    0.001147
     11          1           0       -0.276922   -2.111371   -0.872016
     12          6           0        4.501309   -4.289349    0.005074
     13          6           0        5.896426   -4.300267    0.005882
     14          6           0        3.794495   -5.491830    0.005137
     15          6           0        6.584491   -5.513439    0.006070
     16          1           0        6.453372   -3.352083    0.005056
     17          6           0        4.482619   -6.705459    0.006320
     18          1           0        2.694923   -5.483408    0.004680
     19          6           0        5.877401   -6.716452    0.006649
     20          1           0        7.684137   -5.522125    0.006073
     21          1           0        3.925061   -7.653406    0.006785
     22          1           0        6.420133   -7.672871    0.006856
 ---------------------------------------------------------------------
                    Distance matrix (angstroms):
                    1          2          3          4          5
     1  C    0.000000
     2  C    1.540000   0.000000
     3  H    2.271265   1.070000   0.000000
     4  C    2.511867   1.355200   2.103938   0.000000
     5  O    2.851992   2.415112   3.388643   1.430000   0.000000
     6  H    3.803493   3.198026   4.068379   1.970533   0.960000
     7  O    1.258400   2.426202   3.371420   2.850404   2.519965
     8  C    1.540000   2.665832   2.869601   3.901087   4.391221
     9  H    2.148263   2.924122   2.891628   4.197723   4.842126
    10  H    2.148263   3.548435   3.898772   4.656839   4.876993
    11  H    2.148263   2.924131   2.891643   4.197729   4.842113
    12  C    3.937505   2.507573   2.686772   1.540000   2.571214
    13  C    5.054775   3.763535   4.071565   2.542919   2.950236
    14  C    4.452786   2.912936   2.535964   2.542728   3.833303
    15  C    6.318060   4.922975   5.014680   3.828019   4.344892
    16  H    5.139657   4.087368   4.633927   2.741238   2.570377
    17  C    5.847909   4.308013   3.873241   3.828169   4.987140
    18  H    4.023333   2.560339   1.825477   2.741526   4.162105
    19  C    6.651568   5.141409   4.935507   4.330065   5.192758
    20  H    7.219083   5.892530   6.066442   4.707376   4.980550
    21  H    6.471589   4.956502   4.319313   4.707326   5.959942
    22  H    7.736226   6.217151   5.949302   5.429745   6.266050
                    6          7          8          9         10
     6  H    0.000000
     7  O    3.448189   0.000000
     8  C    5.340160   2.430306   0.000000
     9  H    5.759052   3.114262   1.070000   0.000000
    10  H    5.836393   2.531396   1.070000   1.747303   0.000000
    11  H    5.759063   3.114255   1.070000   1.747303   1.747303
    12  C    2.554311   4.389826   5.172217   5.323948   6.038567
    13  C    2.446303   5.251066   6.410584   6.608498   7.198991
    14  C    3.936539   5.206190   5.375680   5.364057   6.366489
    15  C    3.796714   6.611159   7.588260   7.708842   8.440980
    16  H    1.785294   5.066697   6.608821   6.899889   7.272602
    17  C    4.891815   6.575915   6.737048   6.672985   7.743487
    18  H    4.494473   4.983875   4.676661   4.579327   5.718732
    19  C    4.836401   7.179477   7.728458   7.736573   8.678719
    20  H    4.274056   7.384476   8.553705   8.705579   9.361433
    21  H    5.939740   7.327615   7.166154   7.009979   8.212324
    22  H    5.857843   8.279075   8.775324   8.749557   9.742395
                   11         12         13         14         15
    11  H    0.000000
    12  C    5.323942   0.000000
    13  C    6.608494   1.395160   0.000000
    14  C    5.364078   1.394829   2.416183   0.000000
    15  C    7.708702   2.416205   1.394712   2.790080   0.000000
    16  H    6.899672   2.165414   1.099655   3.412938   2.165330
    17  C    6.673106   2.416183   2.789946   1.395138   2.416356
    18  H    4.579420   2.165365   3.413128   1.099604   3.889684
    19  C    7.736569   2.790065   2.416260   2.416236   1.395427
    20  H    8.705328   3.413229   2.165375   3.889760   1.099680
    21  H    7.010214   3.413055   3.889707   2.165516   3.413506
    22  H    8.749471   3.889745   3.413024   3.413344   2.165678
                   16         17         18         19         20
    16  H    0.000000
    17  C    3.889601   0.000000
    18  H    4.320704   2.165471   0.000000
    19  C    3.413316   1.394825   3.412999   0.000000
    20  H    2.494768   3.413209   4.989364   2.165806   0.000000
    21  H    4.989362   1.099761   2.494420   2.165528   4.321228
    22  H    4.320917   2.165606   4.320988   1.099680   2.494678
                   21         22
    21  H    0.000000
    22  H    2.495147   0.000000
 Stoichiometry    C10H10O2
 Framework group  C1[X(C10H10O2)]
 Deg. of freedom    60
 Full point group                 C1      NOp   1
 Largest Abelian subgroup         C1      NOp   1
 Largest concise Abelian subgroup C1      NOp   1
                         Standard orientation:                         
 ---------------------------------------------------------------------
 Center     Atomic      Atomic             Coordinates (Angstroms)
 Number     Number       Type             X           Y           Z
 ---------------------------------------------------------------------
      1          6           0        2.909744   -0.204676    0.001839
      2          6           0        1.406638   -0.539746    0.000952
      3          1           0        1.088095   -1.561230    0.000955
      4          6           0        0.485968    0.454705    0.000168
      5          8           0        0.903531    1.822382    0.000196
      6          1           0        0.131608    2.393114   -0.000480
      7          8           0        3.284374    0.996666    0.001836
      8          6           0        3.949227   -1.340930    0.002727
      9          1           0        3.818358   -1.944737   -0.870881
     10          1           0        4.934298   -0.923155    0.003258
     11          1           0        3.817264   -1.944374    0.876421
     12          6           0       -1.015112    0.110673   -0.000670
     13          6           0       -1.964932    1.132590   -0.001477
     14          6           0       -1.425147   -1.222526   -0.000732
     15          6           0       -3.324458    0.821286   -0.001665
     16          1           0       -1.641345    2.183557   -0.000651
     17          6           0       -2.785049   -1.534094   -0.001916
     18          1           0       -0.676676   -2.028081   -0.000275
     19          6           0       -3.734698   -0.512476   -0.002244
     20          1           0       -4.073174    1.626717   -0.001668
     21          1           0       -3.108049   -2.585353   -0.002380
     22          1           0       -4.806691   -0.757684   -0.002452
 ---------------------------------------------------------------------
 Rotational constants (GHZ):      2.4454225      0.4649218      0.3915828
 Standard basis: VSTO-6G (5D, 7F)
 There are    58 symmetry adapted basis functions of A   symmetry.
 Integral buffers will be    262144 words long.
 Regular integral format.
 Two-electron integral symmetry is turned off.
    58 basis functions,   348 primitive gaussians,    58 cartesian basis functions
    31 alpha electrons       31 beta electrons
       nuclear repulsion energy       364.1352677817 Hartrees.
 Do NDO integrals.
 One-electron integrals computed using PRISM.
 NBasis=    58 RedAO= F  NBF=    58
 NBsUse=    58 1.00D-04 NBFU=    58
 Simple Huckel Guess.
 Initial guess orbital symmetries:
       Occupied  (A) (A) (A) (A) (A) (A) (A) (A) (A) (A) (A) (A)
                 (A) (A) (A) (A) (A) (A) (A) (A) (A) (A) (A) (A)
                 (A) (A) (A) (A) (A) (A) (A)
       Virtual   (A) (A) (A) (A) (A) (A) (A) (A) (A) (A) (A) (A)
                 (A) (A) (A) (A) (A) (A) (A) (A) (A) (A) (A) (A)
                 (A) (A) (A)
 The electronic state of the initial guess is 1-A.
 Requested convergence on RMS density matrix=1.00D-08 within 128 cycles.
 Requested convergence on MAX density matrix=1.00D-06.
 Requested convergence on             energy=1.00D-06.
 No special actions if energy rises.
 Overlap will be assumed to be unity.
 Keep J ints in memory in canonical form, NReq=892522.
 SCF Done:  E(RPM6) = -0.561119314236E-01 A.U. after   18 cycles
             Convg  =    0.4118D-08             -V/T =  0.9995

 **********************************************************************

            Population analysis using the SCF density.

 **********************************************************************

 Orbital symmetries:
       Occupied  (A) (A) (A) (A) (A) (A) (A) (A) (A) (A) (A) (A)
                 (A) (A) (A) (A) (A) (A) (A) (A) (A) (A) (A) (A)
                 (A) (A) (A) (A) (A) (A) (A)
       Virtual   (A) (A) (A) (A) (A) (A) (A) (A) (A) (A) (A) (A)
                 (A) (A) (A) (A) (A) (A) (A) (A) (A) (A) (A) (A)
                 (A) (A) (A)
 The electronic state is 1-A.
 Alpha  occ. eigenvalues --   -1.13763  -1.11763  -1.10745  -1.02190  -0.97732
 Alpha  occ. eigenvalues --   -0.97367  -0.94265  -0.82600  -0.80513  -0.76059
 Alpha  occ. eigenvalues --   -0.72341  -0.67716  -0.62246  -0.59158  -0.58113
 Alpha  occ. eigenvalues --   -0.57153  -0.55983  -0.55896  -0.53863  -0.52825
 Alpha  occ. eigenvalues --   -0.51218  -0.50564  -0.49262  -0.48274  -0.46514
 Alpha  occ. eigenvalues --   -0.46161  -0.45666  -0.39177  -0.37985  -0.35667
 Alpha  occ. eigenvalues --   -0.35318
 Alpha virt. eigenvalues --   -0.02931  -0.00992   0.01541   0.05663   0.06643
 Alpha virt. eigenvalues --    0.07874   0.08851   0.11729   0.13306   0.14635
 Alpha virt. eigenvalues --    0.14878   0.15820   0.16638   0.16840   0.17234
 Alpha virt. eigenvalues --    0.17483   0.18311   0.18768   0.19128   0.20162
 Alpha virt. eigenvalues --    0.20360   0.20452   0.20693   0.21018   0.21213
 Alpha virt. eigenvalues --    0.22645   0.24613
          Condensed to atoms (all electrons):
              1          2          3          4          5          6
     1  C    3.391042   0.000000   0.000000   0.000000   0.000000   0.000000
     2  C    0.000000   4.522721   0.000000   0.000000   0.000000   0.000000
     3  H    0.000000   0.000000   0.811372   0.000000   0.000000   0.000000
     4  C    0.000000   0.000000   0.000000   3.620932   0.000000   0.000000
     5  O    0.000000   0.000000   0.000000   0.000000   6.409692   0.000000
     6  H    0.000000   0.000000   0.000000   0.000000   0.000000   0.702161
     7  O    0.000000   0.000000   0.000000   0.000000   0.000000   0.000000
     8  C    0.000000   0.000000   0.000000   0.000000   0.000000   0.000000
     9  H    0.000000   0.000000   0.000000   0.000000   0.000000   0.000000
    10  H    0.000000   0.000000   0.000000   0.000000   0.000000   0.000000
    11  H    0.000000   0.000000   0.000000   0.000000   0.000000   0.000000
    12  C    0.000000   0.000000   0.000000   0.000000   0.000000   0.000000
    13  C    0.000000   0.000000   0.000000   0.000000   0.000000   0.000000
    14  C    0.000000   0.000000   0.000000   0.000000   0.000000   0.000000
    15  C    0.000000   0.000000   0.000000   0.000000   0.000000   0.000000
    16  H    0.000000   0.000000   0.000000   0.000000   0.000000   0.000000
    17  C    0.000000   0.000000   0.000000   0.000000   0.000000   0.000000
    18  H    0.000000   0.000000   0.000000   0.000000   0.000000   0.000000
    19  C    0.000000   0.000000   0.000000   0.000000   0.000000   0.000000
    20  H    0.000000   0.000000   0.000000   0.000000   0.000000   0.000000
    21  H    0.000000   0.000000   0.000000   0.000000   0.000000   0.000000
    22  H    0.000000   0.000000   0.000000   0.000000   0.000000   0.000000
              7          8          9         10         11         12
     1  C    0.000000   0.000000   0.000000   0.000000   0.000000   0.000000
     2  C    0.000000   0.000000   0.000000   0.000000   0.000000   0.000000
     3  H    0.000000   0.000000   0.000000   0.000000   0.000000   0.000000
     4  C    0.000000   0.000000   0.000000   0.000000   0.000000   0.000000
     5  O    0.000000   0.000000   0.000000   0.000000   0.000000   0.000000
     6  H    0.000000   0.000000   0.000000   0.000000   0.000000   0.000000
     7  O    6.496818   0.000000   0.000000   0.000000   0.000000   0.000000
     8  C    0.000000   4.605534   0.000000   0.000000   0.000000   0.000000
     9  H    0.000000   0.000000   0.818443   0.000000   0.000000   0.000000
    10  H    0.000000   0.000000   0.000000   0.807909   0.000000   0.000000
    11  H    0.000000   0.000000   0.000000   0.000000   0.818443   0.000000
    12  C    0.000000   0.000000   0.000000   0.000000   0.000000   4.094425
    13  C    0.000000   0.000000   0.000000   0.000000   0.000000   0.000000
    14  C    0.000000   0.000000   0.000000   0.000000   0.000000   0.000000
    15  C    0.000000   0.000000   0.000000   0.000000   0.000000   0.000000
    16  H    0.000000   0.000000   0.000000   0.000000   0.000000   0.000000
    17  C    0.000000   0.000000   0.000000   0.000000   0.000000   0.000000
    18  H    0.000000   0.000000   0.000000   0.000000   0.000000   0.000000
    19  C    0.000000   0.000000   0.000000   0.000000   0.000000   0.000000
    20  H    0.000000   0.000000   0.000000   0.000000   0.000000   0.000000
    21  H    0.000000   0.000000   0.000000   0.000000   0.000000   0.000000
    22  H    0.000000   0.000000   0.000000   0.000000   0.000000   0.000000
             13         14         15         16         17         18
     1  C    0.000000   0.000000   0.000000   0.000000   0.000000   0.000000
     2  C    0.000000   0.000000   0.000000   0.000000   0.000000   0.000000
     3  H    0.000000   0.000000   0.000000   0.000000   0.000000   0.000000
     4  C    0.000000   0.000000   0.000000   0.000000   0.000000   0.000000
     5  O    0.000000   0.000000   0.000000   0.000000   0.000000   0.000000
     6  H    0.000000   0.000000   0.000000   0.000000   0.000000   0.000000
     7  O    0.000000   0.000000   0.000000   0.000000   0.000000   0.000000
     8  C    0.000000   0.000000   0.000000   0.000000   0.000000   0.000000
     9  H    0.000000   0.000000   0.000000   0.000000   0.000000   0.000000
    10  H    0.000000   0.000000   0.000000   0.000000   0.000000   0.000000
    11  H    0.000000   0.000000   0.000000   0.000000   0.000000   0.000000
    12  C    0.000000   0.000000   0.000000   0.000000   0.000000   0.000000
    13  C    4.143550   0.000000   0.000000   0.000000   0.000000   0.000000
    14  C    0.000000   4.116157   0.000000   0.000000   0.000000   0.000000
    15  C    0.000000   0.000000   4.135435   0.000000   0.000000   0.000000
    16  H    0.000000   0.000000   0.000000   0.856901   0.000000   0.000000
    17  C    0.000000   0.000000   0.000000   0.000000   4.144578   0.000000
    18  H    0.000000   0.000000   0.000000   0.000000   0.000000   0.842429
    19  C    0.000000   0.000000   0.000000   0.000000   0.000000   0.000000
    20  H    0.000000   0.000000   0.000000   0.000000   0.000000   0.000000
    21  H    0.000000   0.000000   0.000000   0.000000   0.000000   0.000000
    22  H    0.000000   0.000000   0.000000   0.000000   0.000000   0.000000
             19         20         21         22
     1  C    0.000000   0.000000   0.000000   0.000000
     2  C    0.000000   0.000000   0.000000   0.000000
     3  H    0.000000   0.000000   0.000000   0.000000
     4  C    0.000000   0.000000   0.000000   0.000000
     5  O    0.000000   0.000000   0.000000   0.000000
     6  H    0.000000   0.000000   0.000000   0.000000
     7  O    0.000000   0.000000   0.000000   0.000000
     8  C    0.000000   0.000000   0.000000   0.000000
     9  H    0.000000   0.000000   0.000000   0.000000
    10  H    0.000000   0.000000   0.000000   0.000000
    11  H    0.000000   0.000000   0.000000   0.000000
    12  C    0.000000   0.000000   0.000000   0.000000
    13  C    0.000000   0.000000   0.000000   0.000000
    14  C    0.000000   0.000000   0.000000   0.000000
    15  C    0.000000   0.000000   0.000000   0.000000
    16  H    0.000000   0.000000   0.000000   0.000000
    17  C    0.000000   0.000000   0.000000   0.000000
    18  H    0.000000   0.000000   0.000000   0.000000
    19  C    4.124088   0.000000   0.000000   0.000000
    20  H    0.000000   0.845506   0.000000   0.000000
    21  H    0.000000   0.000000   0.844714   0.000000
    22  H    0.000000   0.000000   0.000000   0.847150
 Mulliken atomic charges:
              1
     1  C    0.608958
     2  C   -0.522721
     3  H    0.188628
     4  C    0.379068
     5  O   -0.409692
     6  H    0.297839
     7  O   -0.496818
     8  C   -0.605534
     9  H    0.181557
    10  H    0.192091
    11  H    0.181557
    12  C   -0.094425
    13  C   -0.143550
    14  C   -0.116157
    15  C   -0.135435
    16  H    0.143099
    17  C   -0.144578
    18  H    0.157571
    19  C   -0.124088
    20  H    0.154494
    21  H    0.155286
    22  H    0.152850
 Sum of Mulliken atomic charges =   0.00000
 Mulliken charges with hydrogens summed into heavy atoms:
              1
     1  C    0.608958
     2  C   -0.334092
     4  C    0.379068
     5  O   -0.111854
     7  O   -0.496818
     8  C   -0.050329
    12  C   -0.094425
    13  C   -0.000451
    14  C    0.041415
    15  C    0.019059
    17  C    0.010708
    19  C    0.028762
 Sum of Mulliken charges with hydrogens summed into heavy atoms =   0.00000
 Charge=              0.0000 electrons
 Dipole moment (field-independent basis, Debye):
    X=             -4.6272    Y=             -2.7880    Z=             -0.0016  Tot=              5.4022
 N-N= 3.641352677817D+02 E-N=-5.660616307751D+02  KE=-1.213591878801D+02
 Calling FoFJK, ICntrl=      2127 FMM=F ISym2X=0 I1Cent= 0 IOpClX= 0 NMat=1 NMatS=1 NMatT=0.
 ***** Axes restored to original set *****
 -------------------------------------------------------------------
 Center     Atomic                   Forces (Hartrees/Bohr)
 Number     Number              X              Y              Z
 -------------------------------------------------------------------
      1        6           0.039004814    0.027364250    0.000013708
      2        6          -0.005227404    0.053003183   -0.000020157
      3        1          -0.008444209   -0.001181644   -0.000004316
      4        6           0.019403859   -0.000263594    0.000002424
      5        8          -0.039758666   -0.044741582   -0.000006264
      6        1           0.015929260   -0.001240156    0.000010991
      7        8          -0.037785950   -0.060456636   -0.000001737
      8        6           0.044649980   -0.008208663    0.000028535
      9        1          -0.006819752   -0.006014416    0.010624080
     10        1          -0.006074594    0.013611427   -0.000007902
     11        1          -0.006807414   -0.006021291   -0.010628092
     12        6          -0.012521251    0.040479492    0.000004212
     13        6           0.007356552    0.005292611   -0.000123111
     14        6          -0.007738295   -0.003677448    0.000053790
     15        6           0.008178877    0.001412023    0.000061492
     16        1          -0.001533555   -0.003291015    0.000042928
     17        6          -0.004205352   -0.006329508   -0.000018578
     18        1           0.003090351   -0.000845999   -0.000008827
     19        6           0.004152167   -0.007568578   -0.000036218
     20        1          -0.004835724    0.000227176    0.000000401
     21        1           0.002295546    0.004341081   -0.000004076
     22        1          -0.002309241    0.004109288    0.000016717
 -------------------------------------------------------------------
 Cartesian Forces:  Max     0.060456636 RMS     0.017143042

 GradGradGradGradGradGradGradGradGradGradGradGradGradGradGradGradGradGrad
 Berny optimization.
 Internal  Forces:  Max     0.071259121 RMS     0.011932375
 Search for a local minimum.
 Step number   1 out of a maximum of  110
 All quantities printed in internal units (Hartrees-Bohrs-Radians)
 Mixed Optimization -- RFO/linear search
 Second derivative matrix not updated -- first step.
     Eigenvalues ---    0.00237   0.00237   0.00237   0.00237   0.01295
     Eigenvalues ---    0.01430   0.01459   0.01565   0.02152   0.02153
     Eigenvalues ---    0.02154   0.02155   0.02155   0.02155   0.02156
     Eigenvalues ---    0.02157   0.02681   0.07243   0.07243   0.16000
     Eigenvalues ---    0.16000   0.16000   0.16000   0.16000   0.16000
     Eigenvalues ---    0.16000   0.16000   0.16000   0.16000   0.22000
     Eigenvalues ---    0.22000   0.22000   0.23486   0.25000   0.25000
     Eigenvalues ---    0.25000   0.25000   0.25000   0.28519   0.28519
     Eigenvalues ---    0.28519   0.33709   0.33718   0.33718   0.33720
     Eigenvalues ---    0.33726   0.37230   0.37230   0.37230   0.37230
     Eigenvalues ---    0.40989   0.42121   0.42300   0.46412   0.46453
     Eigenvalues ---    0.46466   0.46497   0.53930   0.55473   0.80209
     Eigenvalues --- 1000.000001000.000001000.000001000.000001000.00000
     Eigenvalues --- 1000.000001000.000001000.000001000.000001000.00000
     Eigenvalues --- 1000.000001000.000001000.000001000.000001000.00000
     Eigenvalues --- 1000.000001000.000001000.000001000.000001000.00000
     Eigenvalues --- 1000.000001000.000001000.000001000.000001000.00000
     Eigenvalues --- 1000.000001000.000001000.000001000.000001000.00000
     Eigenvalues --- 1000.000001000.000001000.000001000.000001000.00000
     Eigenvalues --- 1000.000001000.000001000.000001000.000001000.00000
 RFO step:  Lambda=-3.20773377D-02 EMin= 2.36824121D-03
 Linear search not attempted -- first point.
 Iteration  1 RMS(Cart)=  0.07446314 RMS(Int)=  0.00122274
 Iteration  2 RMS(Cart)=  0.00211621 RMS(Int)=  0.00001994
 Iteration  3 RMS(Cart)=  0.00000209 RMS(Int)=  0.00001991
 Iteration  4 RMS(Cart)=  0.00000000 RMS(Int)=  0.00001991
 Variable       Old X    -DE/DX   Delta X   Delta X   Delta X     New X
                                 (Linear)    (Quad)   (Total)
    R1        2.91018  -0.04748   0.00000  -0.14966  -0.14966   2.76052
    R2        2.37803  -0.07126   0.00000  -0.08543  -0.08543   2.29261
    R3        2.91018  -0.02495   0.00000  -0.07863  -0.07863   2.83154
    R4        2.02201   0.00527   0.00000   0.01304   0.01304   2.03504
    R5        2.56096  -0.01242   0.00000  -0.02174  -0.02174   2.53921
    R6        2.70231  -0.05171   0.00000  -0.11700  -0.11700   2.58531
    R7        2.91018  -0.03369   0.00000  -0.10618  -0.10618   2.80400
    R8        1.81414   0.01587   0.00000   0.02705   0.02705   1.84118
    R9        2.02201   0.01378   0.00000   0.03409   0.03409   2.05609
   R10        2.02201   0.01486   0.00000   0.03674   0.03674   2.05875
   R11        2.02201   0.01378   0.00000   0.03409   0.03409   2.05609
   R12        2.63647   0.00704   0.00000   0.01442   0.01442   2.65089
   R13        2.63584   0.00715   0.00000   0.01470   0.01470   2.65054
   R14        2.63562   0.00196   0.00000   0.00387   0.00387   2.63949
   R15        2.07805  -0.00361   0.00000  -0.00979  -0.00979   2.06826
   R16        2.63643   0.00297   0.00000   0.00605   0.00605   2.64248
   R17        2.07795  -0.00310   0.00000  -0.00838  -0.00838   2.06957
   R18        2.63697   0.00384   0.00000   0.00742   0.00742   2.64440
   R19        2.07809  -0.00484   0.00000  -0.01310  -0.01310   2.06499
   R20        2.63584   0.00397   0.00000   0.00775   0.00775   2.64358
   R21        2.07825  -0.00491   0.00000  -0.01329  -0.01329   2.06496
   R22        2.07809  -0.00471   0.00000  -0.01277  -0.01277   2.06533
    A1        2.09241   0.00913   0.00000   0.03236   0.03236   2.12477
    A2        2.09241  -0.01298   0.00000  -0.04602  -0.04602   2.04640
    A3        2.09836   0.00385   0.00000   0.01366   0.01366   2.11202
    A4        2.09241  -0.00908   0.00000  -0.04443  -0.04443   2.04798
    A5        2.09836   0.00462   0.00000   0.01831   0.01831   2.11667
    A6        2.09241   0.00447   0.00000   0.02612   0.02612   2.11853
    A7        2.09838  -0.00887   0.00000  -0.03145  -0.03145   2.06693
    A8        2.09239   0.02214   0.00000   0.07850   0.07850   2.17089
    A9        2.09241  -0.01327   0.00000  -0.04705  -0.04705   2.04536
   A10        1.91114   0.00334   0.00000   0.01738   0.01738   1.92851
   A11        1.91063   0.00270   0.00000   0.01445   0.01437   1.92501
   A12        1.91063   0.00056   0.00000   0.00213   0.00211   1.91274
   A13        1.91063   0.00270   0.00000   0.01445   0.01437   1.92501
   A14        1.91063  -0.00185   0.00000  -0.01038  -0.01040   1.90023
   A15        1.91063  -0.00227   0.00000  -0.01027  -0.01040   1.90023
   A16        1.91063  -0.00185   0.00000  -0.01038  -0.01040   1.90023
   A17        2.09435  -0.00285   0.00000  -0.01058  -0.01058   2.08376
   A18        2.09447   0.00398   0.00000   0.01365   0.01365   2.10812
   A19        2.09437  -0.00113   0.00000  -0.00307  -0.00307   2.09130
   A20        2.09455   0.00052   0.00000   0.00233   0.00233   2.09688
   A21        2.09406   0.00010   0.00000   0.00070   0.00070   2.09476
   A22        2.09458  -0.00062   0.00000  -0.00303  -0.00303   2.09155
   A23        2.09440  -0.00074   0.00000  -0.00221  -0.00220   2.09219
   A24        2.09453   0.00122   0.00000   0.00555   0.00555   2.10008
   A25        2.09426  -0.00049   0.00000  -0.00335  -0.00335   2.09091
   A26        2.09429   0.00012   0.00000  -0.00035  -0.00036   2.09393
   A27        2.09462  -0.00026   0.00000  -0.00085  -0.00084   2.09378
   A28        2.09427   0.00014   0.00000   0.00120   0.00120   2.09548
   A29        2.09448   0.00088   0.00000   0.00310   0.00310   2.09758
   A30        2.09411  -0.00067   0.00000  -0.00275  -0.00275   2.09136
   A31        2.09459  -0.00021   0.00000  -0.00035  -0.00035   2.09425
   A32        2.09429   0.00035   0.00000   0.00020   0.00019   2.09448
   A33        2.09407  -0.00019   0.00000  -0.00021  -0.00020   2.09386
   A34        2.09483  -0.00015   0.00000   0.00001   0.00001   2.09484
    D1        3.14159   0.00000   0.00000   0.00000   0.00000   3.14159
    D2        0.00000   0.00000   0.00000   0.00000   0.00000   0.00000
    D3        0.00000   0.00000   0.00000   0.00000   0.00000   0.00000
    D4        3.14159   0.00000   0.00000   0.00000   0.00000  -3.14159
    D5        1.04719   0.00027   0.00000   0.00256   0.00261   1.04979
    D6        3.14158   0.00000   0.00000   0.00000   0.00000   3.14158
    D7       -1.04721  -0.00027   0.00000  -0.00256  -0.00261  -1.04981
    D8       -2.09441   0.00027   0.00000   0.00256   0.00261  -2.09180
    D9       -0.00001   0.00000   0.00000   0.00000   0.00000  -0.00001
   D10        2.09438  -0.00027   0.00000  -0.00256  -0.00261   2.09178
   D11       -0.00003   0.00000   0.00000   0.00001   0.00001  -0.00002
   D12       -3.14156   0.00000   0.00000  -0.00002  -0.00002  -3.14158
   D13        3.14156   0.00000   0.00000   0.00002   0.00002   3.14158
   D14        0.00003   0.00000   0.00000  -0.00001  -0.00001   0.00002
   D15        3.14152   0.00000   0.00000  -0.00002  -0.00002   3.14150
   D16       -0.00014   0.00000   0.00000   0.00001   0.00001  -0.00013
   D17        3.14159   0.00000   0.00000  -0.00001  -0.00001   3.14158
   D18       -0.00009   0.00000   0.00000   0.00000   0.00000  -0.00009
   D19        0.00007   0.00000   0.00000  -0.00004  -0.00004   0.00002
   D20        3.14157   0.00000   0.00000  -0.00003  -0.00003   3.14154
   D21       -3.14112  -0.00002   0.00000  -0.00030  -0.00030  -3.14142
   D22       -0.00091   0.00002   0.00000   0.00041   0.00041  -0.00050
   D23        0.00056  -0.00002   0.00000  -0.00031  -0.00031   0.00025
   D24        3.14078   0.00002   0.00000   0.00040   0.00040   3.14118
   D25       -3.14124  -0.00001   0.00000  -0.00013  -0.00013  -3.14137
   D26       -0.00010   0.00001   0.00000   0.00013   0.00013   0.00004
   D27        0.00026  -0.00001   0.00000  -0.00012  -0.00012   0.00014
   D28        3.14140   0.00001   0.00000   0.00014   0.00014   3.14155
   D29       -0.00099   0.00003   0.00000   0.00053   0.00053  -0.00046
   D30        3.14093   0.00002   0.00000   0.00035   0.00035   3.14128
   D31       -3.14120  -0.00001   0.00000  -0.00018  -0.00018  -3.14138
   D32        0.00072  -0.00002   0.00000  -0.00036  -0.00036   0.00035
   D33       -0.00066   0.00002   0.00000   0.00032   0.00032  -0.00033
   D34        3.14116   0.00001   0.00000   0.00013   0.00013   3.14128
   D35        3.14138   0.00000   0.00000   0.00006   0.00006   3.14145
   D36        0.00001  -0.00001   0.00000  -0.00014  -0.00014  -0.00012
   D37        0.00060  -0.00002   0.00000  -0.00033  -0.00033   0.00027
   D38       -3.14153   0.00000   0.00000  -0.00006  -0.00006   3.14159
   D39       -3.14132  -0.00001   0.00000  -0.00014  -0.00014  -3.14147
   D40       -0.00026   0.00001   0.00000   0.00012   0.00012  -0.00014
   D41        0.00023  -0.00001   0.00000  -0.00010  -0.00010   0.00013
   D42       -3.14083  -0.00002   0.00000  -0.00037  -0.00037  -3.14120
   D43       -3.14158   0.00001   0.00000   0.00010   0.00010  -3.14149
   D44        0.00054  -0.00001   0.00000  -0.00017  -0.00017   0.00037
         Item               Value     Threshold  Converged?
 Maximum Force            0.071259     0.000450     NO 
 RMS     Force            0.011932     0.000300     NO 
 Maximum Displacement     0.273708     0.001800     NO 
 RMS     Displacement     0.074578     0.001200     NO 
 Predicted change in Energy=-1.739125D-02
 GradGradGradGradGradGradGradGradGradGradGradGradGradGradGradGradGradGrad

                          Input orientation:                          
 ---------------------------------------------------------------------
 Center     Atomic      Atomic             Coordinates (Angstroms)
 Number     Number       Type             X           Y           Z
 ---------------------------------------------------------------------
      1          6           0        1.680025   -1.610428    0.002595
      2          6           0        2.350102   -2.908483    0.003398
      3          1           0        1.726954   -3.786775    0.003392
      4          6           0        3.690566   -3.001577    0.004119
      5          8           0        4.423607   -1.846453    0.004065
      6          1           0        5.376968   -2.047417    0.004715
      7          8           0        2.304065   -0.570036    0.002544
      8          6           0        0.181636   -1.611832    0.001828
      9          1           0       -0.195727   -2.119822    0.886910
     10          1           0       -0.184640   -0.585807    0.001287
     11          1           0       -0.194820   -2.120432   -0.883289
     12          6           0        4.441652   -4.281251    0.004936
     13          6           0        5.844220   -4.256296    0.005634
     14          6           0        3.765869   -5.510326    0.005114
     15          6           0        6.566982   -5.451518    0.006199
     16          1           0        6.374856   -3.299059    0.005103
     17          6           0        4.492807   -6.704863    0.006158
     18          1           0        2.671089   -5.539425    0.004615
     19          6           0        5.891455   -6.677020    0.006624
     20          1           0        7.659491   -5.428685    0.006444
     21          1           0        3.965529   -7.661959    0.006590
     22          1           0        6.457062   -7.612206    0.007066
 ---------------------------------------------------------------------
                    Distance matrix (angstroms):
                    1          2          3          4          5
     1  C    0.000000
     2  C    1.460805   0.000000
     3  H    2.176853   1.076898   0.000000
     4  C    2.444908   1.343693   2.114783   0.000000
     5  O    2.753716   2.329663   3.322166   1.368086   0.000000
     6  H    3.722681   3.146959   4.043262   1.937620   0.974312
     7  O    1.213195   2.338900   3.268098   2.799068   2.474206
     8  C    1.498389   2.526568   2.668030   3.774120   4.248454
     9  H    2.135402   2.807815   2.693703   4.081677   4.710880
    10  H    2.127634   3.437986   3.728323   4.566528   4.777570
    11  H    2.135401   2.807822   2.693718   4.081683   4.710874
    12  C    3.841861   2.501815   2.759366   1.483812   2.434866
    13  C    4.933676   3.745060   4.143952   2.492499   2.797408
    14  C    4.422664   2.962092   2.669795   2.509879   3.722444
    15  C    6.215813   4.924338   5.118324   3.778357   4.194110
    16  H    4.989281   4.043661   4.673421   2.700724   2.432579
    17  C    5.819367   4.359323   4.020596   3.789185   4.858903
    18  H    4.052065   2.650451   1.990772   2.734960   4.087709
    19  C    6.588362   5.171369   5.069181   4.284016   5.048659
    20  H    7.094584   5.877163   6.155556   4.652228   4.827354
    21  H    6.468739   5.020474   4.475297   4.668487   5.833521
    22  H    7.670818   6.244369   6.083409   5.376933   6.113825
                    6          7          8          9         10
     6  H    0.000000
     7  O    3.409603   0.000000
     8  C    5.213560   2.364327   0.000000
     9  H    5.642556   3.071303   1.088038   0.000000
    10  H    5.750461   2.488756   1.089443   1.771343   0.000000
    11  H    5.642580   3.071296   1.088038   1.770200   1.771342
    12  C    2.421741   4.282803   5.027280   5.191815   5.921057
    13  C    2.257758   5.110893   6.249645   6.467003   7.058306
    14  C    3.819342   5.152023   5.295752   5.288414   6.313274
    15  C    3.606111   6.480844   7.450895   7.590130   8.322233
    16  H    1.600746   4.900909   6.418934   6.733553   7.098503
    17  C    4.740627   6.513578   6.672719   6.616696   7.702038
    18  H    4.417680   4.982924   4.650093   4.548709   5.717826
    19  C    4.658103   7.082699   7.632704   7.654850   8.603594
    20  H    4.079570   7.230980   8.395636   8.569028   9.218671
    21  H    5.789235   7.283945   7.135959   6.986150   8.203406
    22  H    5.668640   8.175546   8.682481   8.671793   9.668636
                   11         12         13         14         15
    11  H    0.000000
    12  C    5.191817   0.000000
    13  C    6.467002   1.402790   0.000000
    14  C    5.288450   1.402607   2.427372   0.000000
    15  C    7.590078   2.426221   1.396760   2.801730   0.000000
    16  H    6.733428   2.168404   1.094476   3.420017   2.161016
    17  C    6.616795   2.424151   2.796747   1.398341   2.423442
    18  H    4.548771   2.172072   3.422745   1.095167   3.896885
    19  C    7.654880   2.800292   2.421184   2.424725   1.399354
    20  H    8.568919   3.416298   2.160949   3.894478   1.092748
    21  H    6.986338   3.414071   3.889476   2.160878   3.413738
    22  H    8.671785   3.893217   3.411408   3.414736   2.163482
                   16         17         18         19         20
    16  H    0.000000
    17  C    3.891222   0.000000
    18  H    4.328641   2.162616   0.000000
    19  C    3.412374   1.398924   3.415389   0.000000
    20  H    2.487086   3.414163   4.989631   2.164322   0.000000
    21  H    4.983950   1.092729   2.486108   2.163168   4.316580
    22  H    4.313930   2.163693   4.316251   1.092925   2.492709
                   21         22
    21  H    0.000000
    22  H    2.492030   0.000000
 Stoichiometry    C10H10O2
 Framework group  C1[X(C10H10O2)]
 Deg. of freedom    60
 Full point group                 C1      NOp   1
 Largest Abelian subgroup         C1      NOp   1
 Largest concise Abelian subgroup C1      NOp   1
                         Standard orientation:                         
 ---------------------------------------------------------------------
 Center     Atomic      Atomic             Coordinates (Angstroms)
 Number     Number       Type             X           Y           Z
 ---------------------------------------------------------------------
      1          6           0       -2.869729    0.159502    0.000014
      2          6           0       -1.459081    0.539006    0.000048
      3          1           0       -1.229980    1.591253    0.000131
      4          6           0       -0.487084   -0.388751   -0.000029
      5          8           0       -0.846695   -1.708729   -0.000116
      6          1           0       -0.055823   -2.277768   -0.000252
      7          8           0       -3.218006   -1.002628   -0.000079
      8          6           0       -3.878309    1.267624    0.000102
      9          1           0       -3.756679    1.888696   -0.884942
     10          1           0       -4.883249    0.846932    0.000056
     11          1           0       -3.756695    1.888540    0.885258
     12          6           0        0.964566   -0.081490    0.000020
     13          6           0        1.891180   -1.134679   -0.000053
     14          6           0        1.417399    1.246007    0.000041
     15          6           0        3.261341   -0.863392    0.000200
     16          1           0        1.541409   -2.171760    0.000326
     17          6           0        2.789869    1.513746   -0.000184
     18          1           0        0.701235    2.074560    0.000055
     19          6           0        3.711707    0.461508   -0.000028
     20          1           0        3.980605   -1.686045    0.000440
     21          1           0        3.141798    2.548252   -0.000461
     22          1           0        4.783835    0.673705    0.000171
 ---------------------------------------------------------------------
 Rotational constants (GHZ):      2.5714906      0.4780478      0.4041267
 Standard basis: VSTO-6G (5D, 7F)
 There are    58 symmetry adapted basis functions of A   symmetry.
 Integral buffers will be    262144 words long.
 Regular integral format.
 Two-electron integral symmetry is turned off.
    58 basis functions,   348 primitive gaussians,    58 cartesian basis functions
    31 alpha electrons       31 beta electrons
       nuclear repulsion energy       367.9339811060 Hartrees.
 Do NDO integrals.
 One-electron integrals computed using PRISM.
 NBasis=    58 RedAO= F  NBF=    58
 NBsUse=    58 1.00D-04 NBFU=    58
 Initial guess read from the read-write file.
 B after Tr=     0.000000    0.000000    0.000000
         Rot=    1.000000    0.000000    0.000000    0.000000 Ang=   0.00 deg.
 Initial guess orbital symmetries:
       Occupied  (A) (A) (A) (A) (A) (A) (A) (A) (A) (A) (A) (A)
                 (A) (A) (A) (A) (A) (A) (A) (A) (A) (A) (A) (A)
                 (A) (A) (A) (A) (A) (A) (A)
       Virtual   (A) (A) (A) (A) (A) (A) (A) (A) (A) (A) (A) (A)
                 (A) (A) (A) (A) (A) (A) (A) (A) (A) (A) (A) (A)
                 (A) (A) (A)
 Requested convergence on RMS density matrix=1.00D-08 within 128 cycles.
 Requested convergence on MAX density matrix=1.00D-06.
 Requested convergence on             energy=1.00D-06.
 No special actions if energy rises.
 Overlap will be assumed to be unity.
 Keep J ints in memory in canonical form, NReq=892522.
 SCF Done:  E(RPM6) = -0.717386259636E-01 A.U. after   18 cycles
             Convg  =    0.5009D-08             -V/T =  0.9994
 Calling FoFJK, ICntrl=      2127 FMM=F ISym2X=0 I1Cent= 0 IOpClX= 0 NMat=1 NMatS=1 NMatT=0.
 ***** Axes restored to original set *****
 -------------------------------------------------------------------
 Center     Atomic                   Forces (Hartrees/Bohr)
 Number     Number              X              Y              Z
 -------------------------------------------------------------------
      1        6           0.004770699    0.008242353   -0.000000427
      2        6          -0.007573305   -0.000469773   -0.000003240
      3        1          -0.002842355   -0.004470471   -0.000000179
      4        6           0.009820017   -0.004851975    0.000000998
      5        8          -0.012940803   -0.002739230   -0.000004533
      6        1           0.014471200    0.004795317    0.000006357
      7        8           0.000214879    0.007315379   -0.000002486
      8        6           0.003204361   -0.003596031    0.000003062
      9        1          -0.004487252   -0.001559134    0.003170403
     10        1          -0.004673641    0.004423500   -0.000003934
     11        1          -0.004483944   -0.001561358   -0.003173971
     12        6          -0.001412798    0.001312101    0.000012268
     13        6           0.004080032   -0.006231903   -0.000054594
     14        6          -0.000001362   -0.002287901    0.000025634
     15        6           0.001250807    0.001276519    0.000027055
     16        1           0.000637809   -0.000429343    0.000020353
     17        6          -0.000043211   -0.000750586   -0.000004259
     18        1           0.001849647    0.000227260   -0.000002487
     19        6          -0.000197163   -0.001230256   -0.000019522
     20        1          -0.001571674   -0.000061868   -0.000000081
     21        1           0.000738225    0.001317976   -0.000005472
     22        1          -0.000810170    0.001329427    0.000009055
 -------------------------------------------------------------------
 Cartesian Forces:  Max     0.014471200 RMS     0.003829888

 GradGradGradGradGradGradGradGradGradGradGradGradGradGradGradGradGradGrad
 Berny optimization.
 Using GEDIIS/GDIIS optimizer.
 Internal  Forces:  Max     0.016409165 RMS     0.004030306
 Search for a local minimum.
 Step number   2 out of a maximum of  110
 All quantities printed in internal units (Hartrees-Bohrs-Radians)
 Mixed Optimization -- RFO/linear search
 Update second derivatives using D2CorX and points    1    2
 DE= -1.56D-02 DEPred=-1.74D-02 R= 8.99D-01
 SS=  1.41D+00  RLast= 2.90D-01 DXNew= 5.0454D-01 8.7118D-01
 Trust test= 8.99D-01 RLast= 2.90D-01 DXMaxT set to 5.05D-01
 Use linear search instead of GDIIS.
     Eigenvalues ---    0.00237   0.00237   0.00237   0.00237   0.01295
     Eigenvalues ---    0.01441   0.01508   0.01563   0.02152   0.02153
     Eigenvalues ---    0.02154   0.02155   0.02155   0.02155   0.02156
     Eigenvalues ---    0.02157   0.02681   0.07079   0.07167   0.15011
     Eigenvalues ---    0.16000   0.16000   0.16000   0.16000   0.16000
     Eigenvalues ---    0.16000   0.16000   0.16000   0.16138   0.21358
     Eigenvalues ---    0.22000   0.22001   0.23225   0.23952   0.25000
     Eigenvalues ---    0.25000   0.25000   0.25366   0.28463   0.28519
     Eigenvalues ---    0.33501   0.33698   0.33711   0.33718   0.33722
     Eigenvalues ---    0.34939   0.35897   0.37230   0.37230   0.37300
     Eigenvalues ---    0.41780   0.42156   0.43484   0.46315   0.46449
     Eigenvalues ---    0.46459   0.46620   0.54718   0.57199   0.83966
     Eigenvalues --- 1000.000001000.000001000.000001000.000001000.00000
     Eigenvalues --- 1000.000001000.000001000.000001000.000001000.00000
     Eigenvalues --- 1000.000001000.000001000.000001000.000001000.00000
     Eigenvalues --- 1000.000001000.000001000.000001000.000001000.00000
     Eigenvalues --- 1000.000001000.000001000.000001000.000001000.00000
     Eigenvalues --- 1000.000001000.000001000.000001000.000001000.00000
     Eigenvalues --- 1000.000001000.000001000.000001000.000001000.00000
     Eigenvalues --- 1000.000001000.000001000.000001000.000001000.00000
 RFO step:  Lambda=-4.56817490D-03 EMin= 2.36824121D-03
 Quartic linear search produced a step of -0.06972.
 Iteration  1 RMS(Cart)=  0.04822945 RMS(Int)=  0.00102093
 Iteration  2 RMS(Cart)=  0.00160661 RMS(Int)=  0.00004306
 Iteration  3 RMS(Cart)=  0.00000276 RMS(Int)=  0.00004303
 Iteration  4 RMS(Cart)=  0.00000000 RMS(Int)=  0.00004303
 Variable       Old X    -DE/DX   Delta X   Delta X   Delta X     New X
                                 (Linear)    (Quad)   (Total)
    R1        2.76052   0.01429   0.01043   0.01130   0.02174   2.78226
    R2        2.29261   0.00638   0.00596  -0.01119  -0.00523   2.28737
    R3        2.83154   0.01044   0.00548   0.01534   0.02083   2.85237
    R4        2.03504   0.00529  -0.00091   0.01598   0.01507   2.05011
    R5        2.53921   0.01641   0.00152   0.02322   0.02474   2.56395
    R6        2.58531   0.00256   0.00816  -0.02050  -0.01234   2.57297
    R7        2.80400   0.00706   0.00740  -0.00186   0.00554   2.80954
    R8        1.84118   0.01317  -0.00189   0.02783   0.02594   1.86713
    R9        2.05609   0.00486  -0.00238   0.01967   0.01730   2.07339
   R10        2.05875   0.00574  -0.00256   0.02243   0.01987   2.07862
   R11        2.05609   0.00486  -0.00238   0.01967   0.01730   2.07339
   R12        2.65089   0.00489  -0.00101   0.01323   0.01223   2.66312
   R13        2.65054   0.00125  -0.00102   0.00599   0.00497   2.65552
   R14        2.63949  -0.00138  -0.00027  -0.00178  -0.00206   2.63744
   R15        2.06826  -0.00007   0.00068  -0.00240  -0.00172   2.06654
   R16        2.64248  -0.00056  -0.00042   0.00015  -0.00027   2.64222
   R17        2.06957  -0.00186   0.00058  -0.00695  -0.00636   2.06321
   R18        2.64440  -0.00077  -0.00052  -0.00012  -0.00065   2.64375
   R19        2.06499  -0.00157   0.00091  -0.00725  -0.00634   2.05866
   R20        2.64358  -0.00160  -0.00054  -0.00177  -0.00232   2.64127
   R21        2.06496  -0.00151   0.00093  -0.00713  -0.00620   2.05876
   R22        2.06533  -0.00156   0.00089  -0.00713  -0.00624   2.05909
    A1        2.12477   0.00749  -0.00226   0.03489   0.03263   2.15740
    A2        2.04640  -0.00678   0.00321  -0.03548  -0.03227   2.01412
    A3        2.11202  -0.00071  -0.00095   0.00059  -0.00036   2.11166
    A4        2.04798  -0.00344   0.00310  -0.02466  -0.02156   2.02642
    A5        2.11667   0.00742  -0.00128   0.03502   0.03375   2.15042
    A6        2.11853  -0.00398  -0.00182  -0.01036  -0.01218   2.10635
    A7        2.06693  -0.00684   0.00219  -0.03231  -0.03011   2.03682
    A8        2.17089   0.00005  -0.00547   0.01849   0.01301   2.18391
    A9        2.04536   0.00680   0.00328   0.01382   0.01710   2.06246
   A10        1.92851   0.01413  -0.00121   0.08405   0.08283   2.01135
   A11        1.92501   0.00306  -0.00100   0.02113   0.01994   1.94495
   A12        1.91274   0.00283  -0.00015   0.01578   0.01549   1.92823
   A13        1.92501   0.00306  -0.00100   0.02113   0.01994   1.94495
   A14        1.90023  -0.00310   0.00073  -0.02077  -0.02018   1.88005
   A15        1.90023  -0.00293   0.00073  -0.01778  -0.01728   1.88295
   A16        1.90023  -0.00310   0.00073  -0.02077  -0.02018   1.88005
   A17        2.08376   0.00709   0.00074   0.02300   0.02373   2.10749
   A18        2.10812  -0.00275  -0.00095  -0.00723  -0.00819   2.09993
   A19        2.09130  -0.00434   0.00021  -0.01577  -0.01553   2.07577
   A20        2.09688   0.00170  -0.00016   0.00815   0.00799   2.10487
   A21        2.09476  -0.00006  -0.00005   0.00085   0.00080   2.09556
   A22        2.09155  -0.00164   0.00021  -0.00900  -0.00880   2.08275
   A23        2.09219   0.00196   0.00015   0.00756   0.00772   2.09992
   A24        2.10008  -0.00116  -0.00039  -0.00372  -0.00412   2.09597
   A25        2.09091  -0.00080   0.00023  -0.00383  -0.00361   2.08730
   A26        2.09393   0.00024   0.00002   0.00026   0.00027   2.09420
   A27        2.09378  -0.00009   0.00006  -0.00021  -0.00015   2.09363
   A28        2.09548  -0.00015  -0.00008  -0.00005  -0.00012   2.09535
   A29        2.09758   0.00060  -0.00022   0.00196   0.00173   2.09931
   A30        2.09136  -0.00029   0.00019  -0.00121  -0.00102   2.09035
   A31        2.09425  -0.00031   0.00002  -0.00074  -0.00072   2.09353
   A32        2.09448  -0.00016  -0.00001  -0.00216  -0.00219   2.09229
   A33        2.09386   0.00008   0.00001   0.00108   0.00111   2.09497
   A34        2.09484   0.00007   0.00000   0.00107   0.00108   2.09592
    D1        3.14159   0.00000   0.00000   0.00000   0.00000  -3.14159
    D2        0.00000   0.00000   0.00000   0.00000   0.00000   0.00001
    D3        0.00000   0.00000   0.00000   0.00000   0.00000   0.00000
    D4       -3.14159   0.00000   0.00000   0.00001   0.00001  -3.14158
    D5        1.04979   0.00014  -0.00018   0.00254   0.00239   1.05218
    D6        3.14158   0.00000   0.00000   0.00000   0.00000   3.14158
    D7       -1.04981  -0.00014   0.00018  -0.00254  -0.00239  -1.05220
    D8       -2.09180   0.00014  -0.00018   0.00254   0.00239  -2.08941
    D9       -0.00001   0.00000   0.00000   0.00000   0.00000  -0.00001
   D10        2.09178  -0.00014   0.00018  -0.00254  -0.00239   2.08939
   D11       -0.00002   0.00000   0.00000   0.00002   0.00002   0.00000
   D12       -3.14158   0.00000   0.00000  -0.00003  -0.00003   3.14158
   D13        3.14158   0.00000   0.00000   0.00002   0.00002  -3.14159
   D14        0.00002   0.00000   0.00000  -0.00003  -0.00003  -0.00001
   D15        3.14150   0.00000   0.00000  -0.00002  -0.00002   3.14148
   D16       -0.00013   0.00000   0.00000   0.00003   0.00003  -0.00010
   D17        3.14158   0.00000   0.00000  -0.00009  -0.00009   3.14149
   D18       -0.00009   0.00000   0.00000  -0.00005  -0.00005  -0.00014
   D19        0.00002   0.00000   0.00000  -0.00015  -0.00015  -0.00012
   D20        3.14154   0.00000   0.00000  -0.00010  -0.00010   3.14144
   D21       -3.14142  -0.00001   0.00002  -0.00036  -0.00034   3.14142
   D22       -0.00050   0.00001  -0.00003   0.00059   0.00056   0.00007
   D23        0.00025  -0.00001   0.00002  -0.00041  -0.00039  -0.00014
   D24        3.14118   0.00001  -0.00003   0.00054   0.00052  -3.14149
   D25       -3.14137   0.00000   0.00001  -0.00020  -0.00018  -3.14155
   D26        0.00004   0.00000  -0.00001   0.00014   0.00013   0.00017
   D27        0.00014   0.00000   0.00001  -0.00014  -0.00014   0.00001
   D28        3.14155   0.00000  -0.00001   0.00019   0.00018  -3.14146
   D29       -0.00046   0.00001  -0.00004   0.00070   0.00066   0.00020
   D30        3.14128   0.00001  -0.00002   0.00047   0.00045  -3.14146
   D31       -3.14138  -0.00001   0.00001  -0.00026  -0.00024   3.14156
   D32        0.00035  -0.00001   0.00003  -0.00049  -0.00046  -0.00011
   D33       -0.00033   0.00001  -0.00002   0.00042   0.00039   0.00006
   D34        3.14128   0.00000  -0.00001   0.00022   0.00021   3.14149
   D35        3.14145   0.00000   0.00000   0.00008   0.00008   3.14152
   D36       -0.00012   0.00000   0.00001  -0.00011  -0.00010  -0.00023
   D37        0.00027  -0.00001   0.00002  -0.00043  -0.00040  -0.00013
   D38        3.14159   0.00000   0.00000  -0.00007  -0.00006   3.14153
   D39       -3.14147   0.00000   0.00001  -0.00020  -0.00019   3.14153
   D40       -0.00014   0.00000  -0.00001   0.00016   0.00015   0.00001
   D41        0.00013   0.00000   0.00001  -0.00013  -0.00013   0.00000
   D42       -3.14120  -0.00001   0.00003  -0.00049  -0.00046   3.14152
   D43       -3.14149   0.00000  -0.00001   0.00006   0.00006  -3.14143
   D44        0.00037  -0.00001   0.00001  -0.00029  -0.00028   0.00009
         Item               Value     Threshold  Converged?
 Maximum Force            0.016409     0.000450     NO 
 RMS     Force            0.004030     0.000300     NO 
 Maximum Displacement     0.210171     0.001800     NO 
 RMS     Displacement     0.048980     0.001200     NO 
 Predicted change in Energy=-2.384967D-03
 GradGradGradGradGradGradGradGradGradGradGradGradGradGradGradGradGradGrad

                          Input orientation:                          
 ---------------------------------------------------------------------
 Center     Atomic      Atomic             Coordinates (Angstroms)
 Number     Number       Type             X           Y           Z
 ---------------------------------------------------------------------
      1          6           0        1.674152   -1.569890    0.002574
      2          6           0        2.370844   -2.866927    0.003360
      3          1           0        1.738503   -3.748457    0.003389
      4          6           0        3.722530   -2.984418    0.004026
      5          8           0        4.437357   -1.825602    0.003941
      6          1           0        5.419188   -1.936199    0.004535
      7          8           0        2.245166   -0.502616    0.002447
      8          6           0        0.166597   -1.644709    0.001916
      9          1           0       -0.209224   -2.169870    0.888931
     10          1           0       -0.268851   -0.634616    0.001361
     11          1           0       -0.208417   -2.170496   -0.885069
     12          6           0        4.469515   -4.269885    0.004851
     13          6           0        5.878702   -4.284382    0.005375
     14          6           0        3.777068   -5.492675    0.005159
     15          6           0        6.576771   -5.492934    0.006354
     16          1           0        6.436292   -3.343650    0.005241
     17          6           0        4.479574   -6.701579    0.005980
     18          1           0        2.685320   -5.503497    0.004633
     19          6           0        5.877269   -6.704515    0.006578
     20          1           0        7.666165   -5.491888    0.006877
     21          1           0        3.933686   -7.644396    0.006306
     22          1           0        6.421539   -7.648467    0.007282
 ---------------------------------------------------------------------
                    Distance matrix (angstroms):
                    1          2          3          4          5
     1  C    0.000000
     2  C    1.472307   0.000000
     3  H    2.179518   1.084873   0.000000
     4  C    2.489327   1.356783   2.126058   0.000000
     5  O    2.775012   2.314052   3.313787   1.361555   0.000000
     6  H    3.762909   3.187265   4.102648   1.994344   0.988041
     7  O    1.210425   2.367649   3.285147   2.888243   2.560468
     8  C    1.509410   2.520421   2.626146   3.799932   4.274589
     9  H    2.166266   2.815470   2.658902   4.111597   4.742619
    10  H    2.156385   3.457051   3.704791   4.631706   4.854569
    11  H    2.166265   2.815476   2.658912   4.111606   4.742626
    12  C    3.886391   2.524423   2.780344   1.486746   2.444496
    13  C    5.004670   3.783418   4.174741   2.517734   2.850101
    14  C    4.450900   2.978594   2.682918   2.508851   3.726045
    15  C    6.279010   4.958401   5.143155   3.799914   4.245754
    16  H    5.081753   4.093303   4.715198   2.737435   2.510022
    17  C    5.848474   4.376220   4.029195   3.793469   4.876161
    18  H    4.061494   2.655258   1.994149   2.724255   4.073886
    19  C    6.635555   5.198279   5.086027   4.299073   5.086959
    20  H    7.161446   5.910233   6.178733   4.673293   4.885373
    21  H    6.481137   5.026598   4.471820   4.664760   5.840553
    22  H    7.712769   6.266679   6.094335   5.388693   6.151646
                    6          7          8          9         10
     6  H    0.000000
     7  O    3.482755   0.000000
     8  C    5.260673   2.371671   0.000000
     9  H    5.702261   3.096711   1.097192   0.000000
    10  H    5.835059   2.517480   1.099956   1.774356   0.000000
    11  H    5.702300   3.096704   1.097192   1.774000   1.774356
    12  C    2.519518   4.374934   5.040502   5.204061   5.972211
    13  C    2.392721   5.244458   6.292537   6.504972   7.149350
    14  C    3.917280   5.219906   5.276585   5.264276   6.322200
    15  C    3.740369   6.608032   7.476575   7.607327   8.394392
    16  H    1.736495   5.063301   6.495804   6.805993   7.231722
    17  C    4.857131   6.589365   6.646331   6.580335   7.704258
    18  H    4.494401   5.020214   4.608060   4.502603   5.695010
    19  C    4.790269   7.187192   7.629772   7.641134   8.638199
    20  H    4.206166   7.367502   8.428779   8.592762   9.303633
    21  H    5.898324   7.338673   7.084294   6.921933   8.173026
    22  H    5.799544   8.276793   8.670030   8.646348   9.693062
                   11         12         13         14         15
    11  H    0.000000
    12  C    5.204078   0.000000
    13  C    6.504953   1.409262   0.000000
    14  C    5.264358   1.405239   2.424219   0.000000
    15  C    7.607365   2.436469   1.395672   2.799704   0.000000
    16  H    6.805960   2.173965   1.093564   3.419033   2.153870
    17  C    6.580421   2.431715   2.792920   1.398200   2.420549
    18  H    4.502685   2.169135   3.418176   1.091801   3.891466
    19  C    7.641199   2.812329   2.420134   2.424748   1.399012
    20  H    8.592802   3.422260   2.157104   3.889097   1.089394
    21  H    6.922076   3.416787   3.882368   2.157413   3.408033
    22  H    8.646430   3.901950   3.407601   3.411842   2.161116
                   16         17         18         19         20
    16  H    0.000000
    17  C    3.886443   0.000000
    18  H    4.328363   2.157487   0.000000
    19  C    3.407041   1.397698   3.410422   0.000000
    20  H    2.475383   3.408476   4.980858   2.161160   0.000000
    21  H    4.975887   1.089448   2.478279   2.158909   4.308676
    22  H    4.304843   2.160515   4.308159   1.089622   2.489965
                   21         22
    21  H    0.000000
    22  H    2.487856   0.000000
 Stoichiometry    C10H10O2
 Framework group  C1[X(C10H10O2)]
 Deg. of freedom    60
 Full point group                 C1      NOp   1
 Largest Abelian subgroup         C1      NOp   1
 Largest concise Abelian subgroup C1      NOp   1
                         Standard orientation:                         
 ---------------------------------------------------------------------
 Center     Atomic      Atomic             Coordinates (Angstroms)
 Number     Number       Type             X           Y           Z
 ---------------------------------------------------------------------
      1          6           0       -2.898991    0.147045   -0.000006
      2          6           0       -1.470599    0.503952    0.000055
      3          1           0       -1.243631    1.564817    0.000120
      4          6           0       -0.474461   -0.417227    0.000026
      5          8           0       -0.851130   -1.725643   -0.000063
      6          1           0       -0.108873   -2.377777   -0.000184
      7          8           0       -3.304655   -0.993379   -0.000076
      8          6           0       -3.857668    1.312917    0.000028
      9          1           0       -3.721322    1.944222   -0.886930
     10          1           0       -4.898006    0.955707   -0.000029
     11          1           0       -3.721384    1.944117    0.887070
     12          6           0        0.979198   -0.105317    0.000065
     13          6           0        1.937800   -1.138323    0.000160
     14          6           0        1.418259    1.229570   -0.000032
     15          6           0        3.301642   -0.841954   -0.000010
     16          1           0        1.616743   -2.183696    0.000141
     17          6           0        2.785346    1.522893   -0.000042
     18          1           0        0.691914    2.044710    0.000023
     19          6           0        3.727663    0.490615   -0.000031
     20          1           0        4.033637   -1.648776   -0.000060
     21          1           0        3.115816    2.561009   -0.000210
     22          1           0        4.792257    0.722811   -0.000103
 ---------------------------------------------------------------------
 Rotational constants (GHZ):      2.5373270      0.4706612      0.3980083
 Standard basis: VSTO-6G (5D, 7F)
 There are    58 symmetry adapted basis functions of A   symmetry.
 Integral buffers will be    262144 words long.
 Regular integral format.
 Two-electron integral symmetry is turned off.
    58 basis functions,   348 primitive gaussians,    58 cartesian basis functions
    31 alpha electrons       31 beta electrons
       nuclear repulsion energy       366.3491036570 Hartrees.
 Do NDO integrals.
 One-electron integrals computed using PRISM.
 NBasis=    58 RedAO= F  NBF=    58
 NBsUse=    58 1.00D-04 NBFU=    58
 Initial guess read from the read-write file.
 B after Tr=     0.000000    0.000000    0.000000
         Rot=    1.000000    0.000000    0.000000    0.000000 Ang=   0.00 deg.
 Initial guess orbital symmetries:
       Occupied  (A) (A) (A) (A) (A) (A) (A) (A) (A) (A) (A) (A)
                 (A) (A) (A) (A) (A) (A) (A) (A) (A) (A) (A) (A)
                 (A) (A) (A) (A) (A) (A) (A)
       Virtual   (A) (A) (A) (A) (A) (A) (A) (A) (A) (A) (A) (A)
                 (A) (A) (A) (A) (A) (A) (A) (A) (A) (A) (A) (A)
                 (A) (A) (A)
 Requested convergence on RMS density matrix=1.00D-08 within 128 cycles.
 Requested convergence on MAX density matrix=1.00D-06.
 Requested convergence on             energy=1.00D-06.
 No special actions if energy rises.
 Overlap will be assumed to be unity.
 Keep J ints in memory in canonical form, NReq=892522.
 SCF Done:  E(RPM6) = -0.737910688761E-01 A.U. after   15 cycles
             Convg  =    0.7208D-08             -V/T =  0.9994
 Calling FoFJK, ICntrl=      2127 FMM=F ISym2X=0 I1Cent= 0 IOpClX= 0 NMat=1 NMatS=1 NMatT=0.
 ***** Axes restored to original set *****
 -------------------------------------------------------------------
 Center     Atomic                   Forces (Hartrees/Bohr)
 Number     Number              X              Y              Z
 -------------------------------------------------------------------
      1        6          -0.001122806   -0.002331524    0.000000249
      2        6           0.002753350    0.000710218    0.000000743
      3        1           0.000316864   -0.001225637   -0.000000176
      4        6           0.000169783   -0.003361785    0.000000931
      5        8          -0.003406874    0.002991829   -0.000002766
      6        1           0.001510564   -0.003342819    0.000001171
      7        8           0.001579680    0.004933087   -0.000001021
      8        6           0.000247483   -0.001318326    0.000000696
      9        1          -0.000119394    0.000501708   -0.000636124
     10        1          -0.000231284   -0.000504650    0.000000065
     11        1          -0.000119985    0.000502121    0.000635604
     12        6           0.001423807    0.000411920   -0.000002176
     13        6          -0.002135114   -0.000022952    0.000022640
     14        6           0.001187234    0.000798446   -0.000013491
     15        6          -0.000589052    0.001468486   -0.000015755
     16        1          -0.000966234    0.000040039   -0.000006500
     17        6           0.000221613    0.000285182    0.000011494
     18        1          -0.000052116    0.000206138    0.000005562
     19        6          -0.000707064   -0.000447405    0.000006118
     20        1           0.000152761    0.000012682   -0.000000327
     21        1          -0.000196495   -0.000189807   -0.000006077
     22        1           0.000083279   -0.000116953   -0.000000860
 -------------------------------------------------------------------
 Cartesian Forces:  Max     0.004933087 RMS     0.001262789

 GradGradGradGradGradGradGradGradGradGradGradGradGradGradGradGradGradGrad
 Berny optimization.
 Using GEDIIS/GDIIS optimizer.
[...]
 ! D39   D(20,15,19,17)       -179.6039         -DE/DX =    0.0                 !
 ! D40   D(20,15,19,22)          0.2607         -DE/DX =    0.0                 !
 ! D41   D(14,17,19,15)         -0.0259         -DE/DX =    0.0                 !
 ! D42   D(14,17,19,22)       -179.8905         -DE/DX =    0.0                 !
 ! D43   D(21,17,19,15)        179.8511         -DE/DX =    0.0                 !
 ! D44   D(21,17,19,22)         -0.0134         -DE/DX =    0.0                 !
 --------------------------------------------------------------------------------
 GradGradGradGradGradGradGradGradGradGradGradGradGradGradGradGradGradGrad

                          Input orientation:                          
 ---------------------------------------------------------------------
 Center     Atomic      Atomic             Coordinates (Angstroms)
 Number     Number       Type             X           Y           Z
 ---------------------------------------------------------------------
      1          6           0        1.641404   -1.589114    0.164878
      2          6           0        2.416186   -2.824248   -0.046078
      3          1           0        1.919842   -3.610060   -0.615223
      4          6           0        3.670903   -3.037993    0.401203
      5          8           0        4.316899   -2.049416    1.082823
      6          1           0        5.214012   -2.330820    1.403515
      7          8           0        2.005204   -0.659644    0.853402
      8          6           0        0.312118   -1.550704   -0.550165
      9          1           0       -0.355472   -2.348097   -0.204550
     10          1           0       -0.197881   -0.593358   -0.370871
     11          1           0        0.432563   -1.662315   -1.633844
     12          6           0        4.432150   -4.296268    0.192839
     13          6           0        5.599943   -4.285323   -0.584364
     14          6           0        3.980047   -5.490469    0.771064
     15          6           0        6.315489   -5.469539   -0.776549
     16          1           0        5.940225   -3.358162   -1.046865
     17          6           0        4.703060   -6.671160    0.578210
     18          1           0        3.067759   -5.495136    1.369179
     19          6           0        5.869114   -6.661176   -0.194045
     20          1           0        7.220598   -5.465113   -1.383157
     21          1           0        4.355373   -7.600179    1.029135
     22          1           0        6.430211   -7.583375   -0.344491
 ---------------------------------------------------------------------
                    Distance matrix (angstroms):
                    1          2          3          4          5
     1  C    0.000000
     2  C    1.473210   0.000000
     3  H    2.184103   1.089855   0.000000
     4  C    2.504790   1.349096   2.103948   0.000000
     5  O    2.865794   2.342539   3.326387   1.363525   0.000000
     6  H    3.853294   3.189454   4.069805   1.971271   0.993399
     7  O    1.212572   2.379807   3.296832   2.938636   2.707034
     8  C    1.509888   2.510602   2.613418   3.794545   4.353578
     9  H    2.167959   2.816722   2.634056   4.129721   4.855676
    10  H    2.159056   3.451914   3.693906   4.641102   4.961509
    11  H    2.168422   2.793896   2.653922   4.064574   4.755859
    12  C    3.888152   2.507595   2.726818   1.485317   2.419441
    13  C    4.847777   3.544122   3.741668   2.499673   3.070015
    14  C    4.588822   3.197204   3.114831   2.499401   3.471528
    15  C    6.147444   4.768198   4.775501   3.780655   4.375942
    16  H    4.803927   3.702092   4.051327   2.710946   2.980533
    17  C    5.947418   4.518656   4.305917   3.781082   4.665219
    18  H    4.329185   3.092109   2.968009   2.708932   3.676321
    19  C    6.612728   5.163973   5.008338   4.279475   5.030715
    20  H    6.967582   5.643077   5.668242   4.655661   5.116592
    21  H    6.651727   5.265552   4.955479   4.655785   5.551155
    22  H    7.689167   6.233035   6.016972   5.369388   6.093276
                    6          7          8          9         10
     6  H    0.000000
     7  O    3.659494   0.000000
     8  C    5.334230   2.372874   0.000000
     9  H    5.797010   3.089163   1.095884   0.000000
    10  H    5.954477   2.521274   1.099435   1.769635   0.000000
    11  H    5.703920   3.108849   1.096050   1.770361   1.770658
    12  C    2.437218   4.421701   5.006480   5.184073   5.955375
    13  C    2.814372   5.304231   5.953185   6.274080   6.876841
    14  C    3.450514   5.219545   5.542661   5.442706   6.537644
    15  C    3.977122   6.661110   7.172795   7.387307   8.146515
    16  H    2.754484   5.135893   5.932049   6.431604   6.765903
    17  C    4.447556   6.594883   6.839055   6.700025   7.865091
    18  H    3.823674   4.977653   5.180345   4.909072   6.141628
    19  C    4.661904   7.214245   7.558039   7.572861   8.582430
    20  H    4.649272   7.436065   7.983957   8.276578   8.932667
    21  H    5.351968   7.329747   7.445686   7.162290   8.472760
    22  H    5.667804   8.303835   8.594561   8.571651   9.632893
                   11         12         13         14         15
    11  H    0.000000
    12  C    5.125542   0.000000
    13  C    5.889262   1.402820   0.000000
    14  C    5.746563   1.401734   2.431795   0.000000
    15  C    7.059656   2.421414   1.396893   2.801756   0.000000
    16  H    5.792649   2.165917   1.090563   3.419635   2.161437
    17  C    6.943980   2.421160   2.801463   1.397846   2.424704
    18  H    5.536508   2.163938   3.419347   1.090886   3.892629
    19  C    7.524475   2.794161   2.422701   2.422925   1.399486
    20  H    7.784699   3.409605   2.157892   3.891334   1.089594
    21  H    7.598561   3.408976   3.891093   2.158320   3.412063
    22  H    8.526029   3.884075   3.409403   3.409988   2.160587
                   16         17         18         19         20
    16  H    0.000000
    17  C    3.891967   0.000000
    18  H    4.319143   2.163995   0.000000
    19  C    3.412076   1.398627   3.413343   0.000000
    20  H    2.488311   3.411672   4.982201   2.161264   0.000000
    21  H    4.981590   1.089631   2.490940   2.160858   4.311284
    22  H    4.311130   2.160222   4.313176   1.089914   2.488086
                   21         22
    21  H    0.000000
    22  H    2.488389   0.000000
 Stoichiometry    C10H10O2
 Framework group  C1[X(C10H10O2)]
 Deg. of freedom    60
 Full point group                 C1      NOp   1
 Largest Abelian subgroup         C1      NOp   1
 Largest concise Abelian subgroup C1      NOp   1
                         Standard orientation:                         
 ---------------------------------------------------------------------
 Center     Atomic      Atomic             Coordinates (Angstroms)
 Number     Number       Type             X           Y           Z
 ---------------------------------------------------------------------
      1          6           0        2.898962   -0.179179    0.084122
      2          6           0        1.454684   -0.440580    0.210931
      3          1           0        1.177843   -1.391129    0.666562
      4          6           0        0.477117    0.401572   -0.183029
      5          8           0        0.809692    1.609609   -0.720842
      6          1           0        0.014990    2.127091   -1.016652
      7          8           0        3.375714    0.780793   -0.482880
      8          6           0        3.785216   -1.222213    0.721614
      9          1           0        3.649193   -2.205759    0.257829
     10          1           0        4.844984   -0.950513    0.612862
     11          1           0        3.579923   -1.327031    1.793152
     12          6           0       -0.975282    0.115141   -0.061955
     13          6           0       -1.774957    0.904213    0.778158
     14          6           0       -1.541419   -0.943751   -0.785210
     15          6           0       -3.141125    0.634410    0.888166
     16          1           0       -1.328799    1.716831    1.352545
     17          6           0       -2.909960   -1.205750   -0.673745
     18          1           0       -0.914165   -1.558628   -1.432133
     19          6           0       -3.709001   -0.418054    0.161257
     20          1           0       -3.764106    1.242842    1.543085
     21          1           0       -3.353017   -2.026392   -1.237255
     22          1           0       -4.775501   -0.625369    0.247925
 ---------------------------------------------------------------------
 Rotational constants (GHZ):      2.4502999      0.4506001      0.4199404

 **********************************************************************

            Population analysis using the SCF density.

 **********************************************************************

 Orbital symmetries:
       Occupied  (A) (A) (A) (A) (A) (A) (A) (A) (A) (A) (A) (A)
                 (A) (A) (A) (A) (A) (A) (A) (A) (A) (A) (A) (A)
                 (A) (A) (A) (A) (A) (A) (A)
       Virtual   (A) (A) (A) (A) (A) (A) (A) (A) (A) (A) (A) (A)
                 (A) (A) (A) (A) (A) (A) (A) (A) (A) (A) (A) (A)
                 (A) (A) (A)
 The electronic state is 1-A.
 Alpha  occ. eigenvalues --   -1.15643  -1.14103  -1.11693  -1.02404  -0.98093
 Alpha  occ. eigenvalues --   -0.97736  -0.94173  -0.83181  -0.80809  -0.77284
 Alpha  occ. eigenvalues --   -0.71869  -0.68358  -0.62987  -0.59318  -0.58434
 Alpha  occ. eigenvalues --   -0.57302  -0.56486  -0.55865  -0.54654  -0.52142
 Alpha  occ. eigenvalues --   -0.50761  -0.50190  -0.49581  -0.48042  -0.47093
 Alpha  occ. eigenvalues --   -0.46298  -0.45434  -0.38362  -0.37936  -0.35806
 Alpha  occ. eigenvalues --   -0.35657
 Alpha virt. eigenvalues --   -0.02259  -0.01036   0.00720   0.06747   0.07004
 Alpha virt. eigenvalues --    0.08382   0.10124   0.13464   0.13785   0.14985
 Alpha virt. eigenvalues --    0.15627   0.15887   0.16508   0.16855   0.17158
 Alpha virt. eigenvalues --    0.17923   0.18852   0.19139   0.20031   0.20135
 Alpha virt. eigenvalues --    0.20492   0.20501   0.20727   0.21193   0.21235
 Alpha virt. eigenvalues --    0.22829   0.24673
          Condensed to atoms (all electrons):
              1          2          3          4          5          6
     1  C    3.352734   0.000000   0.000000   0.000000   0.000000   0.000000
     2  C    0.000000   4.572658   0.000000   0.000000   0.000000   0.000000
     3  H    0.000000   0.000000   0.799905   0.000000   0.000000   0.000000
     4  C    0.000000   0.000000   0.000000   3.586328   0.000000   0.000000
     5  O    0.000000   0.000000   0.000000   0.000000   6.417113   0.000000
     6  H    0.000000   0.000000   0.000000   0.000000   0.000000   0.677826
     7  O    0.000000   0.000000   0.000000   0.000000   0.000000   0.000000
     8  C    0.000000   0.000000   0.000000   0.000000   0.000000   0.000000
     9  H    0.000000   0.000000   0.000000   0.000000   0.000000   0.000000
    10  H    0.000000   0.000000   0.000000   0.000000   0.000000   0.000000
    11  H    0.000000   0.000000   0.000000   0.000000   0.000000   0.000000
    12  C    0.000000   0.000000   0.000000   0.000000   0.000000   0.000000
    13  C    0.000000   0.000000   0.000000   0.000000   0.000000   0.000000
    14  C    0.000000   0.000000   0.000000   0.000000   0.000000   0.000000
    15  C    0.000000   0.000000   0.000000   0.000000   0.000000   0.000000
    16  H    0.000000   0.000000   0.000000   0.000000   0.000000   0.000000
    17  C    0.000000   0.000000   0.000000   0.000000   0.000000   0.000000
    18  H    0.000000   0.000000   0.000000   0.000000   0.000000   0.000000
    19  C    0.000000   0.000000   0.000000   0.000000   0.000000   0.000000
    20  H    0.000000   0.000000   0.000000   0.000000   0.000000   0.000000
    21  H    0.000000   0.000000   0.000000   0.000000   0.000000   0.000000
    22  H    0.000000   0.000000   0.000000   0.000000   0.000000   0.000000
              7          8          9         10         11         12
     1  C    0.000000   0.000000   0.000000   0.000000   0.000000   0.000000
     2  C    0.000000   0.000000   0.000000   0.000000   0.000000   0.000000
     3  H    0.000000   0.000000   0.000000   0.000000   0.000000   0.000000
     4  C    0.000000   0.000000   0.000000   0.000000   0.000000   0.000000
     5  O    0.000000   0.000000   0.000000   0.000000   0.000000   0.000000
     6  H    0.000000   0.000000   0.000000   0.000000   0.000000   0.000000
     7  O    6.501401   0.000000   0.000000   0.000000   0.000000   0.000000
     8  C    0.000000   4.642153   0.000000   0.000000   0.000000   0.000000
     9  H    0.000000   0.000000   0.815595   0.000000   0.000000   0.000000
    10  H    0.000000   0.000000   0.000000   0.807785   0.000000   0.000000
    11  H    0.000000   0.000000   0.000000   0.000000   0.814904   0.000000
    12  C    0.000000   0.000000   0.000000   0.000000   0.000000   4.151383
    13  C    0.000000   0.000000   0.000000   0.000000   0.000000   0.000000
    14  C    0.000000   0.000000   0.000000   0.000000   0.000000   0.000000
    15  C    0.000000   0.000000   0.000000   0.000000   0.000000   0.000000
    16  H    0.000000   0.000000   0.000000   0.000000   0.000000   0.000000
    17  C    0.000000   0.000000   0.000000   0.000000   0.000000   0.000000
    18  H    0.000000   0.000000   0.000000   0.000000   0.000000   0.000000
    19  C    0.000000   0.000000   0.000000   0.000000   0.000000   0.000000
    20  H    0.000000   0.000000   0.000000   0.000000   0.000000   0.000000
    21  H    0.000000   0.000000   0.000000   0.000000   0.000000   0.000000
    22  H    0.000000   0.000000   0.000000   0.000000   0.000000   0.000000
             13         14         15         16         17         18
     1  C    0.000000   0.000000   0.000000   0.000000   0.000000   0.000000
     2  C    0.000000   0.000000   0.000000   0.000000   0.000000   0.000000
     3  H    0.000000   0.000000   0.000000   0.000000   0.000000   0.000000
     4  C    0.000000   0.000000   0.000000   0.000000   0.000000   0.000000
     5  O    0.000000   0.000000   0.000000   0.000000   0.000000   0.000000
     6  H    0.000000   0.000000   0.000000   0.000000   0.000000   0.000000
     7  O    0.000000   0.000000   0.000000   0.000000   0.000000   0.000000
     8  C    0.000000   0.000000   0.000000   0.000000   0.000000   0.000000
     9  H    0.000000   0.000000   0.000000   0.000000   0.000000   0.000000
    10  H    0.000000   0.000000   0.000000   0.000000   0.000000   0.000000
    11  H    0.000000   0.000000   0.000000   0.000000   0.000000   0.000000
    12  C    0.000000   0.000000   0.000000   0.000000   0.000000   0.000000
    13  C    4.115891   0.000000   0.000000   0.000000   0.000000   0.000000
    14  C    0.000000   4.095411   0.000000   0.000000   0.000000   0.000000
    15  C    0.000000   0.000000   4.154364   0.000000   0.000000   0.000000
    16  H    0.000000   0.000000   0.000000   0.844167   0.000000   0.000000
    17  C    0.000000   0.000000   0.000000   0.000000   4.158717   0.000000
    18  H    0.000000   0.000000   0.000000   0.000000   0.000000   0.842041
    19  C    0.000000   0.000000   0.000000   0.000000   0.000000   0.000000
    20  H    0.000000   0.000000   0.000000   0.000000   0.000000   0.000000
    21  H    0.000000   0.000000   0.000000   0.000000   0.000000   0.000000
    22  H    0.000000   0.000000   0.000000   0.000000   0.000000   0.000000
             19         20         21         22
     1  C    0.000000   0.000000   0.000000   0.000000
     2  C    0.000000   0.000000   0.000000   0.000000
     3  H    0.000000   0.000000   0.000000   0.000000
     4  C    0.000000   0.000000   0.000000   0.000000
     5  O    0.000000   0.000000   0.000000   0.000000
     6  H    0.000000   0.000000   0.000000   0.000000
     7  O    0.000000   0.000000   0.000000   0.000000
     8  C    0.000000   0.000000   0.000000   0.000000
     9  H    0.000000   0.000000   0.000000   0.000000
    10  H    0.000000   0.000000   0.000000   0.000000
    11  H    0.000000   0.000000   0.000000   0.000000
    12  C    0.000000   0.000000   0.000000   0.000000
    13  C    0.000000   0.000000   0.000000   0.000000
    14  C    0.000000   0.000000   0.000000   0.000000
    15  C    0.000000   0.000000   0.000000   0.000000
    16  H    0.000000   0.000000   0.000000   0.000000
    17  C    0.000000   0.000000   0.000000   0.000000
    18  H    0.000000   0.000000   0.000000   0.000000
    19  C    4.109311   0.000000   0.000000   0.000000
    20  H    0.000000   0.845433   0.000000   0.000000
    21  H    0.000000   0.000000   0.844844   0.000000
    22  H    0.000000   0.000000   0.000000   0.850035
 Mulliken atomic charges:
              1
     1  C    0.647266
     2  C   -0.572658
     3  H    0.200095
     4  C    0.413672
     5  O   -0.417113
     6  H    0.322174
     7  O   -0.501401
     8  C   -0.642153
     9  H    0.184405
    10  H    0.192215
    11  H    0.185096
    12  C   -0.151383
    13  C   -0.115891
    14  C   -0.095411
    15  C   -0.154364
    16  H    0.155833
    17  C   -0.158717
    18  H    0.157959
    19  C   -0.109311
    20  H    0.154567
    21  H    0.155156
    22  H    0.149965
 Sum of Mulliken atomic charges =   0.00000
 Mulliken charges with hydrogens summed into heavy atoms:
              1
     1  C    0.647266
     2  C   -0.372563
     4  C    0.413672
     5  O   -0.094938
     7  O   -0.501401
     8  C   -0.080438
    12  C   -0.151383
    13  C    0.039942
    14  C    0.062548
    15  C    0.000203
    17  C   -0.003561
    19  C    0.040654
 Sum of Mulliken charges with hydrogens summed into heavy atoms =   0.00000
 Charge=              0.0000 electrons
 Dipole moment (field-independent basis, Debye):
    X=             -5.1719    Y=             -2.0052    Z=              1.1026  Tot=              5.6555
 N-N= 3.655323147407D+02 E-N=-5.685192787863D+02  KE=-1.215449289703D+02
 1|1|UNPC-DESKTOP-K2VF0AK|FOpt|RPM6|ZDO|C10H10O2|MELIH|27-Nov-2024|0||#
  opt pm6 geom=connectivity||Title Card Required||0,1|C,1.6414036232,-1
 .5891139082,0.164877998|C,2.4161864964,-2.8242482545,-0.0460775069|H,1
 .9198415763,-3.610059877,-0.615222654|C,3.6709034397,-3.0379933209,0.4
 012029474|O,4.3168990125,-2.0494161982,1.0828234814|H,5.2140117175,-2.
 3308196045,1.4035151726|O,2.0052042395,-0.6596442012,0.8534022682|C,0.
 3121175788,-1.5507044698,-0.5501647577|H,-0.3554721253,-2.34809734,-0.
 2045503391|H,-0.1978808108,-0.5933581767,-0.3708706715|H,0.4325626747,
 -1.6623145932,-1.6338440438|C,4.4321501032,-4.296267562,0.1928385692|C
 ,5.5999433678,-4.2853228024,-0.5843635199|C,3.9800467669,-5.4904687846
 ,0.7710642933|C,6.3154890745,-5.4695394677,-0.7765493151|H,5.940225037
 5,-3.3581616095,-1.0468651447|C,4.7030601625,-6.6711599557,0.578209741
 |H,3.0677585105,-5.4951363403,1.3691785355|C,5.8691137888,-6.661176176
 2,-0.194045317|H,7.2205978002,-5.4651133833,-1.38315714|H,4.3553731921
 ,-7.6001785123,1.0291351246|H,6.4302106136,-7.5833745919,-0.3444910116
 ||Version=IA32W-G09RevA.02|State=1-A|HF=-0.0767454|RMSD=3.856e-009|RMS
 F=1.438e-006|Dipole=0.7934061,-1.9910795,-0.5974642|PG=C01 [X(C10H10O2
 )]||@


 NOTHING RESEMBLES A NEW PHENOMENON AS MUCH AS A MISTAKE.

                               -- ENRICO FERMI (?)
 Job cpu time:  0 days  0 hours  0 minutes 39.0 seconds.
 File lengths (MBytes):  RWF=      5 Int=      0 D2E=      0 Chk=      2 Scr=      1
 Normal termination of Gaussian 09 at Wed Nov 27 23:53:52 2024.
