 Entering Link 1 = C:\G09W\l1.exe PID=     10552.
  
 Copyright (c) 1988,1990,1992,1993,1995,1998,2003,2009, Gaussian, Inc.
                  All Rights Reserved.
  
 This is part of the Gaussian(R) 09 program.  It is based on
 the Gaussian(R) 03 system (copyright 2003, Gaussian, Inc.),
 the Gaussian(R) 98 system (copyright 1998, Gaussian, Inc.),
 the Gaussian(R) 94 system (copyright 1995, Gaussian, Inc.),
 the Gaussian 92(TM) system (copyright 1992, Gaussian, Inc.),
 the Gaussian 90(TM) system (copyright 1990, Gaussian, Inc.),
 the Gaussian 88(TM) system (copyright 1988, Gaussian, Inc.),
 the Gaussian 86(TM) system (copyright 1986, Carnegie Mellon
 University), and the Gaussian 82(TM) system (copyright 1983,
 Carnegie Mellon University). Gaussian is a federally registered
 trademark of Gaussian, Inc.
  
 This software contains proprietary and confidential information,
 including trade secrets, belonging to Gaussian, Inc.
  
 This software is provided under written license and may be
 used, copied, transmitted, or stored only in accord with that
 written license.
  
 The following legend is applicable only to US Government
 contracts under FAR:
  
                    RESTRICTED RIGHTS LEGEND
  
 Use, reproduction and disclosure by the US Government is
 subject to restrictions as set forth in subparagraphs (a)
 and (c) of the Commercial Computer Software - Restricted
 Rights clause in FAR 52.227-19.
  
 Gaussian, Inc.
 340 Quinnipiac St., Bldg. 40, Wallingford CT 06492
  
  
 ---------------------------------------------------------------
 Warning -- This program may not be used in any manner that
 competes with the business of Gaussian, Inc. or will provide
 assistance to any competitor of Gaussian, Inc.  The licensee
 of this program is prohibited from giving any competitor of
 Gaussian, Inc. access to this program.  By using this program,
 the user acknowledges that Gaussian, Inc. is engaged in the
 business of creating and licensing software in the field of
 computational chemistry and represents and warrants to the
 licensee that it is not a competitor of Gaussian, Inc. and that
 it will not use this program in any manner prohibited above.
 ---------------------------------------------------------------
  

 Cite this work as:
 Gaussian 09, Revision A.02,
 M. J. Frisch, G. W. Trucks, H. B. Schlegel, G. E. Scuseria, 
 M. A. Robb, J. R. Cheeseman, G. Scalmani, V. Barone, B. Mennucci, 
 G. A. Petersson, H. Nakatsuji, M. Caricato, X. Li, H. P. Hratchian, 
 A. F. Izmaylov, J. Bloino, G. Zheng, J. L. Sonnenberg, M. Hada, 
 M. Ehara, K. Toyota, R. Fukuda, J. Hasegawa, M. Ishida, T. Nakajima, 
 Y. Honda, O. Kitao, H. Nakai, T. Vreven, J. A. Montgomery, Jr., 
 J. E. Peralta, F. Ogliaro, M. Bearpark, J. J. Heyd, E. Brothers, 
 K. N. Kudin, V. N. Staroverov, R. Kobayashi, J. Normand, 
 K. Raghavachari, A. Rendell, J. C. Burant, S. S. Iyengar, J. Tomasi, 
 M. Cossi, N. Rega, J. M. Millam, M. Klene, J. E. Knox, J. B. Cross, 
 V. Bakken, C. Adamo, J. Jaramillo, R. Gomperts, R. E. Stratmann, 
 O. Yazyev, A. J. Austin, R. Cammi, C. Pomelli, J. W. Ochterski, 
 R. L. Martin, K. Morokuma, V. G. Zakrzewski, G. A. Voth, 
 P. Salvador, J. J. Dannenberg, S. Dapprich, A. D. Daniels, 
 O. Farkas, J. B. Foresman, J. V. Ortiz, J. Cioslowski, 
 and D. J. Fox, Gaussian, Inc., Wallingford CT, 2009.
 
 ******************************************
 Gaussian 09:  IA32W-G09RevA.02 11-Jun-2009
                27-Nov-2024 
 ******************************************
 %chk=C:\G09W\Midterm1\DMHDE1opt.chk
 ---------------------------
 # opt pm6 geom=connectivity
 ---------------------------
 1/14=-1,18=20,19=15,26=1,38=1,57=2/1,3;
 2/9=110,12=2,17=6,18=5,40=1/2;
 3/5=2,16=1,25=1,41=3900000,71=1/1,2,3;
 4/35=1/1;
 5/5=2,35=1,38=5/2;
 6/7=2,8=2,9=2,10=2,28=1/1;
 7//1,2,3,16;
 1/14=-1,18=20,19=15/3(2);
 2/9=110/2;
 99//99;
 2/9=110/2;
 3/5=2,16=1,25=1,41=3900000,71=1,135=20/1,2,3;
 4/5=5,16=3,35=1/1;
 5/5=2,35=1,38=5/2;
 7//1,2,3,16;
 1/14=-1,18=20,19=15/3(-5);
 2/9=110/2;
 6/7=2,8=2,9=2,10=2,19=2,28=1/1;
 99/9=1/99;
 -------------------
 Title Card Required
 -------------------
 Symbolic Z-matrix:
 Charge =  0 Multiplicity = 1
 C                    -4.5354    0.28761   0. 
 H                    -4.17874  -0.7212    0. 
 H                    -4.17873   0.79201   0.87365 
 H                    -5.6054    0.28762   0. 
 C                    -4.02206   1.01357  -1.2574 
 C                    -2.53132   0.93277  -1.63527 
 H                    -2.01188   0.00039  -1.55955 
 C                    -1.87511   2.03853  -2.06336 
 O                    -4.81654   1.67257  -1.97718 
 O                    -2.20575   2.61843  -3.32799 
 H                    -1.41739   2.99911  -3.72191 
 C                    -0.77457   2.6727   -1.1926 
 C                    -0.75589   1.99096   0.18816 
 H                    -1.6719    2.19844   0.70079 
 H                    -0.64903   0.93375   0.06253 
 H                     0.06623   2.36703   0.76052 
 C                    -1.05988   4.17605  -1.01901 
 H                    -0.299     4.61529  -0.40825 
 H                    -1.06597   4.65096  -1.97782 
 H                    -2.01291   4.30643  -0.55035 
 C                     0.59261   2.48525  -1.87618 
 H                     1.37222   2.75238  -1.19371 
 H                     0.70852   1.46217  -2.16733 
 H                     0.64703   3.11097  -2.74244 
 

 GradGradGradGradGradGradGradGradGradGradGradGradGradGradGradGradGradGrad
 Berny optimization.
 Initialization pass.
                           ----------------------------
                           !    Initial Parameters    !
                           ! (Angstroms and Degrees)  !
 --------------------------                            --------------------------
 ! Name  Definition              Value          Derivative Info.                !
 --------------------------------------------------------------------------------
 ! R1    R(1,2)                  1.07           estimate D2E/DX2                !
 ! R2    R(1,3)                  1.07           estimate D2E/DX2                !
 ! R3    R(1,4)                  1.07           estimate D2E/DX2                !
 ! R4    R(1,5)                  1.54           estimate D2E/DX2                !
 ! R5    R(5,6)                  1.54           estimate D2E/DX2                !
 ! R6    R(5,9)                  1.2584         estimate D2E/DX2                !
 ! R7    R(6,7)                  1.07           estimate D2E/DX2                !
 ! R8    R(6,8)                  1.3552         estimate D2E/DX2                !
 ! R9    R(8,10)                 1.43           estimate D2E/DX2                !
 ! R10   R(8,12)                 1.54           estimate D2E/DX2                !
 ! R11   R(10,11)                0.96           estimate D2E/DX2                !
 ! R12   R(12,13)                1.54           estimate D2E/DX2                !
 ! R13   R(12,17)                1.54           estimate D2E/DX2                !
 ! R14   R(12,21)                1.54           estimate D2E/DX2                !
 ! R15   R(13,14)                1.07           estimate D2E/DX2                !
 ! R16   R(13,15)                1.07           estimate D2E/DX2                !
 ! R17   R(13,16)                1.07           estimate D2E/DX2                !
 ! R18   R(17,18)                1.07           estimate D2E/DX2                !
 ! R19   R(17,19)                1.07           estimate D2E/DX2                !
 ! R20   R(17,20)                1.07           estimate D2E/DX2                !
 ! R21   R(21,22)                1.07           estimate D2E/DX2                !
 ! R22   R(21,23)                1.07           estimate D2E/DX2                !
 ! R23   R(21,24)                1.07           estimate D2E/DX2                !
 ! A1    A(2,1,3)              109.4712         estimate D2E/DX2                !
 ! A2    A(2,1,4)              109.4712         estimate D2E/DX2                !
 ! A3    A(2,1,5)              109.4712         estimate D2E/DX2                !
 ! A4    A(3,1,4)              109.4712         estimate D2E/DX2                !
 ! A5    A(3,1,5)              109.4713         estimate D2E/DX2                !
 ! A6    A(4,1,5)              109.4712         estimate D2E/DX2                !
 ! A7    A(1,5,6)              119.8865         estimate D2E/DX2                !
 ! A8    A(1,5,9)              120.2269         estimate D2E/DX2                !
 ! A9    A(6,5,9)              119.8865         estimate D2E/DX2                !
 ! A10   A(5,6,7)              119.8865         estimate D2E/DX2                !
 ! A11   A(5,6,8)              120.2269         estimate D2E/DX2                !
 ! A12   A(7,6,8)              119.8865         estimate D2E/DX2                !
 ! A13   A(6,8,10)             119.8865         estimate D2E/DX2                !
 ! A14   A(6,8,12)             120.2269         estimate D2E/DX2                !
 ! A15   A(10,8,12)            119.8865         estimate D2E/DX2                !
 ! A16   A(8,10,11)            109.5            estimate D2E/DX2                !
 ! A17   A(8,12,13)            109.4712         estimate D2E/DX2                !
 ! A18   A(8,12,17)            109.4712         estimate D2E/DX2                !
 ! A19   A(8,12,21)            109.4712         estimate D2E/DX2                !
 ! A20   A(13,12,17)           109.4712         estimate D2E/DX2                !
 ! A21   A(13,12,21)           109.4712         estimate D2E/DX2                !
 ! A22   A(17,12,21)           109.4713         estimate D2E/DX2                !
 ! A23   A(12,13,14)           109.4712         estimate D2E/DX2                !
 ! A24   A(12,13,15)           109.4712         estimate D2E/DX2                !
 ! A25   A(12,13,16)           109.4712         estimate D2E/DX2                !
 ! A26   A(14,13,15)           109.4713         estimate D2E/DX2                !
 ! A27   A(14,13,16)           109.4712         estimate D2E/DX2                !
 ! A28   A(15,13,16)           109.4712         estimate D2E/DX2                !
 ! A29   A(12,17,18)           109.4712         estimate D2E/DX2                !
 ! A30   A(12,17,19)           109.4712         estimate D2E/DX2                !
 ! A31   A(12,17,20)           109.4712         estimate D2E/DX2                !
 ! A32   A(18,17,19)           109.4713         estimate D2E/DX2                !
 ! A33   A(18,17,20)           109.4712         estimate D2E/DX2                !
 ! A34   A(19,17,20)           109.4712         estimate D2E/DX2                !
 ! A35   A(12,21,22)           109.4712         estimate D2E/DX2                !
 ! A36   A(12,21,23)           109.4712         estimate D2E/DX2                !
 ! A37   A(12,21,24)           109.4712         estimate D2E/DX2                !
 ! A38   A(22,21,23)           109.4713         estimate D2E/DX2                !
 ! A39   A(22,21,24)           109.4712         estimate D2E/DX2                !
 ! A40   A(23,21,24)           109.4712         estimate D2E/DX2                !
 ! D1    D(2,1,5,6)            -48.82           estimate D2E/DX2                !
 ! D2    D(2,1,5,9)            131.18           estimate D2E/DX2                !
 ! D3    D(3,1,5,6)             71.18           estimate D2E/DX2                !
 ! D4    D(3,1,5,9)           -108.82           estimate D2E/DX2                !
 ! D5    D(4,1,5,6)           -168.82           estimate D2E/DX2                !
 ! D6    D(4,1,5,9)             11.18           estimate D2E/DX2                !
 ! D7    D(1,5,6,7)             42.41           estimate D2E/DX2                !
 ! D8    D(1,5,6,8)           -137.59           estimate D2E/DX2                !
 ! D9    D(9,5,6,7)           -137.59           estimate D2E/DX2                !
 ! D10   D(9,5,6,8)             42.41           estimate D2E/DX2                !
 ! D11   D(5,6,8,10)           -68.138          estimate D2E/DX2                !
 ! D12   D(5,6,8,12)           111.862          estimate D2E/DX2                !
 ! D13   D(7,6,8,10)           111.8619         estimate D2E/DX2                !
 ! D14   D(7,6,8,12)           -68.1381         estimate D2E/DX2                !
 ! D15   D(6,8,10,11)         -146.8777         estimate D2E/DX2                !
 ! D16   D(12,8,10,11)          33.1223         estimate D2E/DX2                !
 ! D17   D(6,8,12,13)           -8.1662         estimate D2E/DX2                !
 ! D18   D(6,8,12,17)         -128.1662         estimate D2E/DX2                !
 ! D19   D(6,8,12,21)          111.8338         estimate D2E/DX2                !
 ! D20   D(10,8,12,13)         171.8338         estimate D2E/DX2                !
 ! D21   D(10,8,12,17)          51.8338         estimate D2E/DX2                !
 ! D22   D(10,8,12,21)         -68.1662         estimate D2E/DX2                !
 ! D23   D(8,12,13,14)         -65.249          estimate D2E/DX2                !
 ! D24   D(8,12,13,15)          54.7511         estimate D2E/DX2                !
 ! D25   D(8,12,13,16)         174.7511         estimate D2E/DX2                !
 ! D26   D(17,12,13,14)         54.751          estimate D2E/DX2                !
 ! D27   D(17,12,13,15)        174.751          estimate D2E/DX2                !
 ! D28   D(17,12,13,16)        -65.249          estimate D2E/DX2                !
 ! D29   D(21,12,13,14)        174.7511         estimate D2E/DX2                !
 ! D30   D(21,12,13,15)        -65.2489         estimate D2E/DX2                !
 ! D31   D(21,12,13,16)         54.7511         estimate D2E/DX2                !
 ! D32   D(8,12,17,18)         179.6012         estimate D2E/DX2                !
 ! D33   D(8,12,17,19)         -60.3988         estimate D2E/DX2                !
 ! D34   D(8,12,17,20)          59.6012         estimate D2E/DX2                !
 ! D35   D(13,12,17,18)         59.6012         estimate D2E/DX2                !
 ! D36   D(13,12,17,19)        179.6012         estimate D2E/DX2                !
 ! D37   D(13,12,17,20)        -60.3988         estimate D2E/DX2                !
 ! D38   D(21,12,17,18)        -60.3989         estimate D2E/DX2                !
 ! D39   D(21,12,17,19)         59.6012         estimate D2E/DX2                !
 ! D40   D(21,12,17,20)        179.6012         estimate D2E/DX2                !
 ! D41   D(8,12,21,22)        -169.1592         estimate D2E/DX2                !
 ! D42   D(8,12,21,23)         -49.1592         estimate D2E/DX2                !
 ! D43   D(8,12,21,24)          70.8408         estimate D2E/DX2                !
 ! D44   D(13,12,21,22)        -49.1592         estimate D2E/DX2                !
 ! D45   D(13,12,21,23)         70.8408         estimate D2E/DX2                !
 ! D46   D(13,12,21,24)       -169.1592         estimate D2E/DX2                !
 ! D47   D(17,12,21,22)         70.8408         estimate D2E/DX2                !
 ! D48   D(17,12,21,23)       -169.1591         estimate D2E/DX2                !
 ! D49   D(17,12,21,24)        -49.1592         estimate D2E/DX2                !
 --------------------------------------------------------------------------------
 Trust Radius=3.00D-01 FncErr=1.00D-07 GrdErr=1.00D-07
 Number of steps in this run= 122 maximum allowed number of steps= 144.
 GradGradGradGradGradGradGradGradGradGradGradGradGradGradGradGradGradGrad

                          Input orientation:                          
 ---------------------------------------------------------------------
 Center     Atomic      Atomic             Coordinates (Angstroms)
 Number     Number       Type             X           Y           Z
 ---------------------------------------------------------------------
      1          6           0       -4.535398    0.287611    0.000000
      2          1           0       -4.178744   -0.721199    0.000000
      3          1           0       -4.178725    0.792009    0.873652
      4          1           0       -5.605398    0.287624    0.000000
      5          6           0       -4.022056    1.013567   -1.257405
      6          6           0       -2.531320    0.932773   -1.635267
      7          1           0       -2.011877    0.000386   -1.559546
      8          6           0       -1.875112    2.038528   -2.063360
      9          8           0       -4.816545    1.672571   -1.977177
     10          8           0       -2.205753    2.618432   -3.327990
     11          1           0       -1.417391    2.999108   -3.721907
     12          6           0       -0.774567    2.672698   -1.192596
     13          6           0       -0.755890    1.990964    0.188161
     14          1           0       -1.671895    2.198438    0.700790
     15          1           0       -0.649027    0.933752    0.062529
     16          1           0        0.066229    2.367030    0.760520
     17          6           0       -1.059881    4.176049   -1.019010
     18          1           0       -0.299003    4.615291   -0.408248
     19          1           0       -1.065969    4.650965   -1.977821
     20          1           0       -2.012910    4.306426   -0.550353
     21          6           0        0.592613    2.485251   -1.876176
     22          1           0        1.372217    2.752377   -1.193709
     23          1           0        0.708520    1.462170   -2.167331
     24          1           0        0.647026    3.110967   -2.742444
 ---------------------------------------------------------------------
                    Distance matrix (angstroms):
                    1          2          3          4          5
     1  C    0.000000
     2  H    1.070000   0.000000
     3  H    1.070000   1.747302   0.000000
     4  H    1.070000   1.747303   1.747303   0.000000
     5  C    1.540000   2.148263   2.148263   2.148263   0.000000
     6  C    2.665832   2.850215   3.004734   3.541224   1.540000
     7  H    2.980409   2.765534   3.352961   3.927860   2.271265
     8  C    3.794771   4.144909   3.935287   4.608487   2.511867
     9  O    2.430306   3.169567   3.051135   2.539605   1.258400
    10  O    4.683534   5.110905   4.988209   5.297713   3.187769
    11  H    5.561185   5.942924   5.797880   6.224479   4.098832
    12  C    4.610290   4.952700   4.403937   5.517951   3.647341
    13  C    4.149879   4.371174   3.690961   5.143394   3.703080
    14  H    3.513121   3.911480   2.879604   4.428856   3.280503
    15  H    3.940215   3.898933   3.624470   4.998701   3.622971
    16  H    5.106598   5.304276   4.529142   6.088487   4.755834
    17  C    5.313901   5.894805   4.976051   6.067944   4.339654
    18  H    6.069804   6.610384   5.595802   6.859533   5.249248
    19  H    5.915029   6.516233   5.719413   6.599768   4.742163
    20  H    4.776684   5.501885   4.366884   5.418453   3.921672
    21  C    5.886099   6.047082   5.761448   6.838490   4.883021
    22  H    6.511523   6.656113   6.239389   7.495803   5.667953
    23  H    5.794444   5.774926   5.794985   6.778085   4.838135
    24  H    6.507677   6.744964   6.460773   7.388171   5.329611
                    6          7          8          9         10
     6  C    0.000000
     7  H    1.070000   0.000000
     8  C    1.355200   2.103938   0.000000
     9  O    2.426202   3.291927   2.965363   0.000000
    10  O    2.410965   3.165304   1.430000   3.087974   0.000000
    11  H    3.140803   3.744536   1.970533   4.044506   0.960000
    12  C    2.511867   2.967631   1.540000   4.237145   2.571214
    13  C    2.756231   2.931617   2.514810   4.612914   3.854755
    14  H    2.792433   3.171142   2.776220   4.163756   4.085642
    15  H    2.534865   2.315094   2.691323   4.698347   4.093551
    16  H    3.813679   3.911806   3.442531   5.640810   4.684124
    17  C    3.614380   4.316785   2.514809   4.614976   3.011740
    18  H    4.477695   5.055370   3.444304   5.615098   4.018462
    19  H    4.011178   4.764197   2.736212   4.789327   2.693186
    20  H    3.581525   4.422719   2.729751   4.102851   3.256037
    21  C    3.496739   3.613609   2.514809   5.470799   3.155369
    22  H    4.329380   4.377143   3.436716   6.330922   4.168329
    23  H    3.325645   3.147502   2.649179   5.532338   3.343211
    24  H    4.009021   4.259662   2.823554   5.701335   2.953609
                   11         12         13         14         15
    11  H    0.000000
    12  C    2.630053   0.000000
    13  C    4.091768   1.540000   0.000000
    14  H    4.501788   2.148263   1.070000   0.000000
    15  H    4.379273   2.148263   1.070000   1.747303   0.000000
    16  H    4.763696   2.148263   1.070000   1.747303   1.747303
    17  C    2.969622   1.540000   2.514809   2.691323   3.442530
    18  H    3.852685   2.148263   2.729751   2.992654   3.727985
    19  H    2.427750   2.148263   3.444304   3.681982   4.260814
    20  H    3.481735   2.148263   2.736213   2.474926   3.689272
    21  C    2.776848   1.540000   2.514809   3.442530   2.776220
    22  H    3.772873   2.148263   2.649179   3.628029   2.995155
    23  H    3.049325   2.148263   2.823554   3.799287   2.663537
    24  H    2.287724   2.148263   3.436717   4.250407   3.779932
                   16         17         18         19         20
    16  H    0.000000
    17  C    2.776220   0.000000
    18  H    2.560096   1.070000   0.000000
    19  H    3.741221   1.070000   1.747303   0.000000
    20  H    3.130888   1.070000   1.747303   1.747303   0.000000
    21  C    2.691323   2.514810   2.736213   2.729752   3.444304
    22  H    2.381828   2.823555   2.623047   3.188137   3.779954
    23  H    3.131073   3.436717   3.748553   3.654195   4.255653
    24  H    3.627881   2.649180   2.933672   2.427055   3.648238
                   21         22         23         24
    21  C    0.000000
    22  H    1.070000   0.000000
    23  H    1.070000   1.747303   0.000000
    24  H    1.070000   1.747303   1.747303   0.000000
 Stoichiometry    C8H14O2
 Framework group  C1[X(C8H14O2)]
 Deg. of freedom    66
 Full point group                 C1      NOp   1
 Largest Abelian subgroup         C1      NOp   1
 Largest concise Abelian subgroup C1      NOp   1
                         Standard orientation:                         
 ---------------------------------------------------------------------
 Center     Atomic      Atomic             Coordinates (Angstroms)
 Number     Number       Type             X           Y           Z
 ---------------------------------------------------------------------
      1          6           0       -3.054348   -1.163986    0.030842
      2          1           0       -3.200928   -1.571297   -0.947684
      3          1           0       -2.595002   -1.899171    0.658062
      4          1           0       -3.999761   -0.882123    0.445145
      5          6           0       -2.143808    0.074681   -0.059830
      6          6           0       -0.826140    0.001997   -0.853598
      7          1           0       -0.801418   -0.493614   -1.801575
      8          6           0        0.302203    0.563592   -0.355584
      9          8           0       -2.472794    1.146038    0.512475
     10          8           0        0.400897    1.985812   -0.244002
     11          1           0        1.310766    2.256155   -0.387715
     12          6           0        1.478491   -0.324595    0.090589
     13          6           0        1.046032   -1.802328    0.060836
     14          1           0        0.280791   -1.964774    0.790847
     15          1           0        0.669052   -2.044135   -0.910923
     16          1           0        1.887780   -2.424813    0.281911
     17          6           0        1.897229    0.059003    1.522061
     18          1           0        2.709971   -0.562799    1.834650
     19          1           0        2.204305    1.083812    1.541318
     20          1           0        1.068350   -0.077478    2.184808
     21          6           0        2.668498   -0.118648   -0.864957
     22          1           0        3.411901   -0.864335   -0.674682
     23          1           0        2.331547   -0.201062   -1.877168
     24          1           0        3.088871    0.852545   -0.706938
 ---------------------------------------------------------------------
 Rotational constants (GHZ):      2.0443016      0.8443062      0.7242488
 Standard basis: VSTO-6G (5D, 7F)
 There are    54 symmetry adapted basis functions of A   symmetry.
 Integral buffers will be    262144 words long.
 Regular integral format.
 Two-electron integral symmetry is turned off.
    54 basis functions,   324 primitive gaussians,    54 cartesian basis functions
    29 alpha electrons       29 beta electrons
       nuclear repulsion energy       337.9601048466 Hartrees.
 Do NDO integrals.
 One-electron integrals computed using PRISM.
 NBasis=    54 RedAO= F  NBF=    54
 NBsUse=    54 1.00D-04 NBFU=    54
 Simple Huckel Guess.
 Initial guess orbital symmetries:
       Occupied  (A) (A) (A) (A) (A) (A) (A) (A) (A) (A) (A) (A)
                 (A) (A) (A) (A) (A) (A) (A) (A) (A) (A) (A) (A)
                 (A) (A) (A) (A) (A)
       Virtual   (A) (A) (A) (A) (A) (A) (A) (A) (A) (A) (A) (A)
                 (A) (A) (A) (A) (A) (A) (A) (A) (A) (A) (A) (A)
                 (A)
 The electronic state of the initial guess is 1-A.
 Requested convergence on RMS density matrix=1.00D-08 within 128 cycles.
 Requested convergence on MAX density matrix=1.00D-06.
 Requested convergence on             energy=1.00D-06.
 No special actions if energy rises.
 Overlap will be assumed to be unity.
 Keep J ints in memory in canonical form, NReq=889174.
 SCF Done:  E(RPM6) = -0.859993509495E-01 A.U. after   17 cycles
             Convg  =    0.6248D-08             -V/T =  0.9992

 **********************************************************************

            Population analysis using the SCF density.

 **********************************************************************

 Orbital symmetries:
       Occupied  (A) (A) (A) (A) (A) (A) (A) (A) (A) (A) (A) (A)
                 (A) (A) (A) (A) (A) (A) (A) (A) (A) (A) (A) (A)
                 (A) (A) (A) (A) (A)
       Virtual   (A) (A) (A) (A) (A) (A) (A) (A) (A) (A) (A) (A)
                 (A) (A) (A) (A) (A) (A) (A) (A) (A) (A) (A) (A)
                 (A)
 The electronic state is 1-A.
 Alpha  occ. eigenvalues --   -1.14588  -1.10131  -1.09821  -0.98502  -0.95996
 Alpha  occ. eigenvalues --   -0.93453  -0.91939  -0.80700  -0.73398  -0.70212
 Alpha  occ. eigenvalues --   -0.64124  -0.59646  -0.58931  -0.57519  -0.56300
 Alpha  occ. eigenvalues --   -0.55170  -0.54218  -0.53117  -0.52176  -0.51127
 Alpha  occ. eigenvalues --   -0.50089  -0.49514  -0.47945  -0.46430  -0.46307
 Alpha  occ. eigenvalues --   -0.45936  -0.43791  -0.35688  -0.32329
 Alpha virt. eigenvalues --   -0.02324   0.04482   0.06431   0.10462   0.11433
 Alpha virt. eigenvalues --    0.11536   0.11962   0.13931   0.15706   0.17605
 Alpha virt. eigenvalues --    0.18546   0.19029   0.19364   0.19628   0.19920
 Alpha virt. eigenvalues --    0.20012   0.20488   0.20598   0.20770   0.21476
 Alpha virt. eigenvalues --    0.22841   0.23529   0.23767   0.24375   0.24782
          Condensed to atoms (all electrons):
              1          2          3          4          5          6
     1  C    4.598048   0.000000   0.000000   0.000000   0.000000   0.000000
     2  H    0.000000   0.819676   0.000000   0.000000   0.000000   0.000000
     3  H    0.000000   0.000000   0.820007   0.000000   0.000000   0.000000
     4  H    0.000000   0.000000   0.000000   0.809697   0.000000   0.000000
     5  C    0.000000   0.000000   0.000000   0.000000   3.356878   0.000000
     6  C    0.000000   0.000000   0.000000   0.000000   0.000000   4.714246
     7  H    0.000000   0.000000   0.000000   0.000000   0.000000   0.000000
     8  C    0.000000   0.000000   0.000000   0.000000   0.000000   0.000000
     9  O    0.000000   0.000000   0.000000   0.000000   0.000000   0.000000
    10  O    0.000000   0.000000   0.000000   0.000000   0.000000   0.000000
    11  H    0.000000   0.000000   0.000000   0.000000   0.000000   0.000000
    12  C    0.000000   0.000000   0.000000   0.000000   0.000000   0.000000
    13  C    0.000000   0.000000   0.000000   0.000000   0.000000   0.000000
    14  H    0.000000   0.000000   0.000000   0.000000   0.000000   0.000000
    15  H    0.000000   0.000000   0.000000   0.000000   0.000000   0.000000
    16  H    0.000000   0.000000   0.000000   0.000000   0.000000   0.000000
    17  C    0.000000   0.000000   0.000000   0.000000   0.000000   0.000000
    18  H    0.000000   0.000000   0.000000   0.000000   0.000000   0.000000
    19  H    0.000000   0.000000   0.000000   0.000000   0.000000   0.000000
    20  H    0.000000   0.000000   0.000000   0.000000   0.000000   0.000000
    21  C    0.000000   0.000000   0.000000   0.000000   0.000000   0.000000
    22  H    0.000000   0.000000   0.000000   0.000000   0.000000   0.000000
    23  H    0.000000   0.000000   0.000000   0.000000   0.000000   0.000000
    24  H    0.000000   0.000000   0.000000   0.000000   0.000000   0.000000
              7          8          9         10         11         12
     1  C    0.000000   0.000000   0.000000   0.000000   0.000000   0.000000
     2  H    0.000000   0.000000   0.000000   0.000000   0.000000   0.000000
     3  H    0.000000   0.000000   0.000000   0.000000   0.000000   0.000000
     4  H    0.000000   0.000000   0.000000   0.000000   0.000000   0.000000
     5  C    0.000000   0.000000   0.000000   0.000000   0.000000   0.000000
     6  C    0.000000   0.000000   0.000000   0.000000   0.000000   0.000000
     7  H    0.781911   0.000000   0.000000   0.000000   0.000000   0.000000
     8  C    0.000000   3.499642   0.000000   0.000000   0.000000   0.000000
     9  O    0.000000   0.000000   6.530759   0.000000   0.000000   0.000000
    10  O    0.000000   0.000000   0.000000   6.452166   0.000000   0.000000
    11  H    0.000000   0.000000   0.000000   0.000000   0.689912   0.000000
    12  C    0.000000   0.000000   0.000000   0.000000   0.000000   3.902784
    13  C    0.000000   0.000000   0.000000   0.000000   0.000000   0.000000
    14  H    0.000000   0.000000   0.000000   0.000000   0.000000   0.000000
    15  H    0.000000   0.000000   0.000000   0.000000   0.000000   0.000000
    16  H    0.000000   0.000000   0.000000   0.000000   0.000000   0.000000
    17  C    0.000000   0.000000   0.000000   0.000000   0.000000   0.000000
    18  H    0.000000   0.000000   0.000000   0.000000   0.000000   0.000000
    19  H    0.000000   0.000000   0.000000   0.000000   0.000000   0.000000
    20  H    0.000000   0.000000   0.000000   0.000000   0.000000   0.000000
    21  C    0.000000   0.000000   0.000000   0.000000   0.000000   0.000000
    22  H    0.000000   0.000000   0.000000   0.000000   0.000000   0.000000
    23  H    0.000000   0.000000   0.000000   0.000000   0.000000   0.000000
    24  H    0.000000   0.000000   0.000000   0.000000   0.000000   0.000000
             13         14         15         16         17         18
     1  C    0.000000   0.000000   0.000000   0.000000   0.000000   0.000000
     2  H    0.000000   0.000000   0.000000   0.000000   0.000000   0.000000
     3  H    0.000000   0.000000   0.000000   0.000000   0.000000   0.000000
     4  H    0.000000   0.000000   0.000000   0.000000   0.000000   0.000000
     5  C    0.000000   0.000000   0.000000   0.000000   0.000000   0.000000
     6  C    0.000000   0.000000   0.000000   0.000000   0.000000   0.000000
     7  H    0.000000   0.000000   0.000000   0.000000   0.000000   0.000000
     8  C    0.000000   0.000000   0.000000   0.000000   0.000000   0.000000
     9  O    0.000000   0.000000   0.000000   0.000000   0.000000   0.000000
    10  O    0.000000   0.000000   0.000000   0.000000   0.000000   0.000000
    11  H    0.000000   0.000000   0.000000   0.000000   0.000000   0.000000
    12  C    0.000000   0.000000   0.000000   0.000000   0.000000   0.000000
    13  C    4.479846   0.000000   0.000000   0.000000   0.000000   0.000000
    14  H    0.000000   0.837282   0.000000   0.000000   0.000000   0.000000
    15  H    0.000000   0.000000   0.834072   0.000000   0.000000   0.000000
    16  H    0.000000   0.000000   0.000000   0.843961   0.000000   0.000000
    17  C    0.000000   0.000000   0.000000   0.000000   4.499709   0.000000
    18  H    0.000000   0.000000   0.000000   0.000000   0.000000   0.831103
    19  H    0.000000   0.000000   0.000000   0.000000   0.000000   0.000000
    20  H    0.000000   0.000000   0.000000   0.000000   0.000000   0.000000
    21  C    0.000000   0.000000   0.000000   0.000000   0.000000   0.000000
    22  H    0.000000   0.000000   0.000000   0.000000   0.000000   0.000000
    23  H    0.000000   0.000000   0.000000   0.000000   0.000000   0.000000
    24  H    0.000000   0.000000   0.000000   0.000000   0.000000   0.000000
             19         20         21         22         23         24
     1  C    0.000000   0.000000   0.000000   0.000000   0.000000   0.000000
     2  H    0.000000   0.000000   0.000000   0.000000   0.000000   0.000000
     3  H    0.000000   0.000000   0.000000   0.000000   0.000000   0.000000
     4  H    0.000000   0.000000   0.000000   0.000000   0.000000   0.000000
     5  C    0.000000   0.000000   0.000000   0.000000   0.000000   0.000000
     6  C    0.000000   0.000000   0.000000   0.000000   0.000000   0.000000
     7  H    0.000000   0.000000   0.000000   0.000000   0.000000   0.000000
     8  C    0.000000   0.000000   0.000000   0.000000   0.000000   0.000000
     9  O    0.000000   0.000000   0.000000   0.000000   0.000000   0.000000
    10  O    0.000000   0.000000   0.000000   0.000000   0.000000   0.000000
    11  H    0.000000   0.000000   0.000000   0.000000   0.000000   0.000000
    12  C    0.000000   0.000000   0.000000   0.000000   0.000000   0.000000
    13  C    0.000000   0.000000   0.000000   0.000000   0.000000   0.000000
    14  H    0.000000   0.000000   0.000000   0.000000   0.000000   0.000000
    15  H    0.000000   0.000000   0.000000   0.000000   0.000000   0.000000
    16  H    0.000000   0.000000   0.000000   0.000000   0.000000   0.000000
    17  C    0.000000   0.000000   0.000000   0.000000   0.000000   0.000000
    18  H    0.000000   0.000000   0.000000   0.000000   0.000000   0.000000
    19  H    0.842218   0.000000   0.000000   0.000000   0.000000   0.000000
    20  H    0.000000   0.830637   0.000000   0.000000   0.000000   0.000000
    21  C    0.000000   0.000000   4.512922   0.000000   0.000000   0.000000
    22  H    0.000000   0.000000   0.000000   0.828552   0.000000   0.000000
    23  H    0.000000   0.000000   0.000000   0.000000   0.836451   0.000000
    24  H    0.000000   0.000000   0.000000   0.000000   0.000000   0.847520
 Mulliken atomic charges:
              1
     1  C   -0.598048
     2  H    0.180324
     3  H    0.179993
     4  H    0.190303
     5  C    0.643122
     6  C   -0.714246
     7  H    0.218089
     8  C    0.500358
     9  O   -0.530759
    10  O   -0.452166
    11  H    0.310088
    12  C    0.097216
    13  C   -0.479846
    14  H    0.162718
    15  H    0.165928
    16  H    0.156039
    17  C   -0.499709
    18  H    0.168897
    19  H    0.157782
    20  H    0.169363
    21  C   -0.512922
    22  H    0.171448
    23  H    0.163549
    24  H    0.152480
 Sum of Mulliken atomic charges =   0.00000
 Mulliken charges with hydrogens summed into heavy atoms:
              1
     1  C   -0.047429
     5  C    0.643122
     6  C   -0.496156
     8  C    0.500358
     9  O   -0.530759
    10  O   -0.142078
    12  C    0.097216
    13  C    0.004838
    17  C   -0.003667
    21  C   -0.025445
 Sum of Mulliken charges with hydrogens summed into heavy atoms =   0.00000
 Charge=              0.0000 electrons
 Dipole moment (field-independent basis, Debye):
    X=              4.9046    Y=             -3.5699    Z=             -0.7569  Tot=              6.1133
 N-N= 3.379601048466D+02 E-N=-5.279411578667D+02  KE=-1.101690969264D+02
 Calling FoFJK, ICntrl=      2127 FMM=F ISym2X=0 I1Cent= 0 IOpClX= 0 NMat=1 NMatS=1 NMatT=0.
 ***** Axes restored to original set *****
 -------------------------------------------------------------------
 Center     Atomic                   Forces (Hartrees/Bohr)
 Number     Number              X              Y              Z
 -------------------------------------------------------------------
      1        6           0.023353343    0.018116846   -0.034534841
      2        1           0.003643517   -0.013396060    0.002323134
      3        1           0.003644334    0.004932101    0.012127742
      4        1          -0.014725842    0.000035742    0.000838547
      5        6          -0.009667670    0.016594074   -0.061061668
      6        6          -0.063333255    0.006422542    0.017218970
      7        1           0.001251274   -0.000839252    0.018773393
      8        6           0.003345880    0.011513627   -0.035177201
      9        8           0.038966192   -0.032762472    0.045134948
     10        8          -0.003079542   -0.019972492    0.051099184
     11        1           0.007812907    0.013204498   -0.001736339
     12        6           0.007070595   -0.004466042   -0.012988286
     13        6           0.000774171    0.009905567   -0.017113158
     14        1          -0.011439450   -0.000238980    0.010437625
     15        1           0.001930446   -0.015412990    0.003732210
     16        1           0.009569510    0.002948310    0.010689256
     17        6          -0.000410164   -0.021533298   -0.006892669
     18        1           0.008363735    0.008879446    0.008083237
     19        1          -0.001589320    0.011550345   -0.010552735
     20        1          -0.013158814    0.006742307    0.006550347
     21        6          -0.018879857    0.001582218    0.003843579
     22        1           0.013690770    0.002895354    0.005953600
     23        1           0.006520739   -0.013483771   -0.004628754
     24        1           0.006346502    0.006782382   -0.012120123
 -------------------------------------------------------------------
 Cartesian Forces:  Max     0.063333255 RMS     0.018406527

 GradGradGradGradGradGradGradGradGradGradGradGradGradGradGradGradGradGrad
 Berny optimization.
 Internal  Forces:  Max     0.067574442 RMS     0.012223331
 Search for a local minimum.
 Step number   1 out of a maximum of  122
 All quantities printed in internal units (Hartrees-Bohrs-Radians)
 Mixed Optimization -- RFO/linear search
 Second derivative matrix not updated -- first step.
     Eigenvalues ---    0.00237   0.00237   0.00237   0.00237   0.00237
     Eigenvalues ---    0.00237   0.00237   0.01228   0.01295   0.01459
     Eigenvalues ---    0.02681   0.04739   0.05241   0.05241   0.05720
     Eigenvalues ---    0.05720   0.05720   0.05720   0.05720   0.05720
     Eigenvalues ---    0.07243   0.07243   0.15006   0.15006   0.16000
     Eigenvalues ---    0.16000   0.16000   0.16000   0.16000   0.16000
     Eigenvalues ---    0.16000   0.16000   0.16000   0.16000   0.16000
     Eigenvalues ---    0.16000   0.16000   0.16000   0.22000   0.25000
     Eigenvalues ---    0.25000   0.25000   0.25000   0.28519   0.28519
     Eigenvalues ---    0.28519   0.28519   0.28519   0.28519   0.37230
     Eigenvalues ---    0.37230   0.37230   0.37230   0.37230   0.37230
     Eigenvalues ---    0.37230   0.37230   0.37230   0.37230   0.37230
     Eigenvalues ---    0.37230   0.37230   0.40989   0.53930   0.55473
     Eigenvalues ---    0.802091000.000001000.000001000.000001000.00000
     Eigenvalues --- 1000.000001000.000001000.000001000.000001000.00000
     Eigenvalues --- 1000.000001000.000001000.000001000.000001000.00000
     Eigenvalues --- 1000.000001000.000001000.000001000.000001000.00000
     Eigenvalues --- 1000.000001000.000001000.000001000.000001000.00000
     Eigenvalues --- 1000.000001000.000001000.000001000.000001000.00000
     Eigenvalues --- 1000.000001000.000001000.000001000.000001000.00000
     Eigenvalues --- 1000.000001000.000001000.000001000.000001000.00000
     Eigenvalues --- 1000.000001000.000001000.000001000.000001000.00000
     Eigenvalues --- 1000.000001000.00000
 RFO step:  Lambda=-5.13969715D-02 EMin= 2.36824039D-03
 Linear search not attempted -- first point.
 Maximum step size (   0.300) exceeded in Quadratic search.
    -- Step size scaled by   0.546
 Iteration  1 RMS(Cart)=  0.07979065 RMS(Int)=  0.00147204
 Iteration  2 RMS(Cart)=  0.00313375 RMS(Int)=  0.00009049
 Iteration  3 RMS(Cart)=  0.00000393 RMS(Int)=  0.00009046
 Iteration  4 RMS(Cart)=  0.00000000 RMS(Int)=  0.00009046
 Variable       Old X    -DE/DX   Delta X   Delta X   Delta X     New X
                                 (Linear)    (Quad)   (Total)
    R1        2.02201   0.01384   0.00000   0.01785   0.01785   2.03985
    R2        2.02201   0.01344   0.00000   0.01733   0.01733   2.03934
    R3        2.02201   0.01473   0.00000   0.01898   0.01898   2.04099
    R4        2.91018  -0.02559   0.00000  -0.04152  -0.04152   2.86866
    R5        2.91018  -0.05274   0.00000  -0.08558  -0.08558   2.82460
    R6        2.37803  -0.06757   0.00000  -0.04324  -0.04324   2.33479
    R7        2.02201   0.00267   0.00000   0.00344   0.00344   2.02545
    R8        2.56096   0.00916   0.00000   0.00847   0.00847   2.56943
    R9        2.70231  -0.04749   0.00000  -0.05623  -0.05623   2.64607
   R10        2.91018  -0.00379   0.00000  -0.00615  -0.00615   2.90403
   R11        1.81414   0.01236   0.00000   0.01114   0.01114   1.82528
   R12        2.91018   0.00819   0.00000   0.01330   0.01330   2.92347
   R13        2.91018   0.00645   0.00000   0.01046   0.01046   2.92064
   R14        2.91018   0.01017   0.00000   0.01651   0.01651   2.92669
   R15        2.02201   0.01475   0.00000   0.01901   0.01901   2.04102
   R16        2.02201   0.01498   0.00000   0.01931   0.01931   2.04132
   R17        2.02201   0.01411   0.00000   0.01818   0.01818   2.04019
   R18        2.02201   0.01421   0.00000   0.01831   0.01831   2.04032
   R19        2.02201   0.01459   0.00000   0.01881   0.01881   2.04082
   R20        2.02201   0.01541   0.00000   0.01987   0.01987   2.04187
   R21        2.02201   0.01450   0.00000   0.01869   0.01869   2.04069
   R22        2.02201   0.01486   0.00000   0.01915   0.01915   2.04116
   R23        2.02201   0.01410   0.00000   0.01818   0.01818   2.04018
    A1        1.91063  -0.00237   0.00000  -0.00568  -0.00571   1.90492
    A2        1.91063  -0.00140   0.00000  -0.00333  -0.00334   1.90730
    A3        1.91063   0.00323   0.00000   0.00869   0.00868   1.91931
    A4        1.91063  -0.00152   0.00000  -0.00465  -0.00465   1.90598
    A5        1.91063   0.00209   0.00000   0.00526   0.00525   1.91588
    A6        1.91063  -0.00003   0.00000  -0.00029  -0.00029   1.91034
    A7        2.09241  -0.01816   0.00000  -0.03291  -0.03300   2.05942
    A8        2.09836   0.00180   0.00000   0.00326   0.00318   2.10154
    A9        2.09241   0.01636   0.00000   0.02964   0.02955   2.12197
   A10        2.09241  -0.00919   0.00000  -0.02162  -0.02165   2.07077
   A11        2.09836   0.00747   0.00000   0.01504   0.01501   2.11337
   A12        2.09241   0.00172   0.00000   0.00658   0.00655   2.09896
   A13        2.09241  -0.00400   0.00000  -0.00725  -0.00736   2.08505
   A14        2.09836   0.02459   0.00000   0.04457   0.04446   2.14281
   A15        2.09241  -0.02059   0.00000  -0.03732  -0.03742   2.05500
   A16        1.91114   0.00184   0.00000   0.00476   0.00476   1.91589
   A17        1.91063   0.00396   0.00000   0.01224   0.01223   1.92286
   A18        1.91063  -0.00499   0.00000  -0.01863  -0.01861   1.89202
   A19        1.91063  -0.00044   0.00000  -0.00177  -0.00179   1.90885
   A20        1.91063  -0.00009   0.00000   0.00041   0.00043   1.91106
   A21        1.91063  -0.00163   0.00000   0.00026   0.00023   1.91087
   A22        1.91063   0.00321   0.00000   0.00750   0.00747   1.91810
   A23        1.91063   0.00473   0.00000   0.01224   0.01216   1.92279
   A24        1.91063   0.00614   0.00000   0.01606   0.01597   1.92660
   A25        1.91063   0.00339   0.00000   0.00854   0.00848   1.91912
   A26        1.91063  -0.00521   0.00000  -0.01302  -0.01313   1.89751
   A27        1.91063  -0.00425   0.00000  -0.01136  -0.01141   1.89922
   A28        1.91063  -0.00480   0.00000  -0.01247  -0.01254   1.89809
   A29        1.91063   0.00265   0.00000   0.00655   0.00649   1.91713
   A30        1.91063   0.00678   0.00000   0.01799   0.01788   1.92852
   A31        1.91063   0.00498   0.00000   0.01268   0.01259   1.92323
   A32        1.91063  -0.00453   0.00000  -0.01135  -0.01143   1.89920
   A33        1.91063  -0.00430   0.00000  -0.01206  -0.01209   1.89855
   A34        1.91063  -0.00557   0.00000  -0.01380  -0.01394   1.89670
   A35        1.91063   0.00400   0.00000   0.00951   0.00944   1.92008
   A36        1.91063   0.00479   0.00000   0.01260   0.01250   1.92313
   A37        1.91063   0.00659   0.00000   0.01764   0.01752   1.92816
   A38        1.91063  -0.00503   0.00000  -0.01422  -0.01426   1.89638
   A39        1.91063  -0.00553   0.00000  -0.01473  -0.01481   1.89582
   A40        1.91063  -0.00483   0.00000  -0.01080  -0.01096   1.89967
    D1       -0.85207  -0.00134   0.00000  -0.01337  -0.01330  -0.86537
    D2        2.28952   0.00106   0.00000   0.01103   0.01095   2.30047
    D3        1.24233  -0.00098   0.00000  -0.01178  -0.01169   1.23063
    D4       -1.89927   0.00142   0.00000   0.01262   0.01255  -1.88672
    D5       -2.94646  -0.00158   0.00000  -0.01444  -0.01436  -2.96083
    D6        0.19513   0.00082   0.00000   0.00996   0.00988   0.20501
    D7        0.74019  -0.00024   0.00000  -0.00406  -0.00401   0.73619
    D8       -2.40140  -0.00199   0.00000  -0.01858  -0.01841  -2.41981
    D9       -2.40140  -0.00263   0.00000  -0.02838  -0.02855  -2.42995
   D10        0.74019  -0.00439   0.00000  -0.04290  -0.04295   0.69724
   D11       -1.18923   0.01757   0.00000   0.12635   0.12663  -1.06260
   D12        1.95236   0.01436   0.00000   0.09886   0.09870   2.05106
   D13        1.95236   0.01581   0.00000   0.11183   0.11200   2.06435
   D14       -1.18923   0.01261   0.00000   0.08434   0.08407  -1.10516
   D15       -2.56350  -0.00946   0.00000  -0.08042  -0.07998  -2.64348
   D16        0.57809  -0.00626   0.00000  -0.05302  -0.05345   0.52464
   D17       -0.14253   0.00139   0.00000   0.01124   0.01120  -0.13132
   D18       -2.23692   0.00214   0.00000   0.01466   0.01471  -2.22221
   D19        1.95187   0.00154   0.00000   0.01797   0.01793   1.96980
   D20        2.99907  -0.00182   0.00000  -0.01625  -0.01627   2.98280
   D21        0.90467  -0.00107   0.00000  -0.01283  -0.01276   0.89191
   D22       -1.18972  -0.00166   0.00000  -0.00952  -0.00954  -1.19926
   D23       -1.13881   0.00173   0.00000   0.00967   0.00966  -1.12915
   D24        0.95559   0.00201   0.00000   0.01106   0.01108   0.96667
   D25        3.04998   0.00197   0.00000   0.01085   0.01087   3.06085
   D26        0.95559  -0.00202   0.00000  -0.00541  -0.00542   0.95016
   D27        3.04998  -0.00174   0.00000  -0.00402  -0.00400   3.04598
   D28       -1.13881  -0.00178   0.00000  -0.00422  -0.00421  -1.14302
   D29        3.04998   0.00085   0.00000   0.00418   0.00415   3.05413
   D30       -1.13881   0.00113   0.00000   0.00558   0.00557  -1.13324
   D31        0.95559   0.00109   0.00000   0.00537   0.00536   0.96095
   D32        3.13463   0.00086   0.00000   0.00296   0.00297   3.13760
   D33       -1.05416   0.00108   0.00000   0.00408   0.00408  -1.05008
   D34        1.04024   0.00145   0.00000   0.00595   0.00600   1.04624
   D35        1.04024  -0.00088   0.00000  -0.00087  -0.00089   1.03934
   D36        3.13463  -0.00065   0.00000   0.00025   0.00022   3.13485
   D37       -1.05416  -0.00028   0.00000   0.00212   0.00214  -1.05202
   D38       -1.05416  -0.00078   0.00000  -0.00603  -0.00606  -1.06021
   D39        1.04024  -0.00056   0.00000  -0.00491  -0.00494   1.03530
   D40        3.13463  -0.00019   0.00000  -0.00304  -0.00302   3.13161
   D41       -2.95238  -0.00272   0.00000  -0.01245  -0.01244  -2.96482
   D42       -0.85799  -0.00349   0.00000  -0.01632  -0.01635  -0.87434
   D43        1.23641  -0.00243   0.00000  -0.01103  -0.01101   1.22539
   D44       -0.85799   0.00086   0.00000   0.00161   0.00161  -0.85638
   D45        1.23641   0.00009   0.00000  -0.00226  -0.00231   1.23410
   D46       -2.95238   0.00114   0.00000   0.00303   0.00303  -2.94935
   D47        1.23641   0.00171   0.00000   0.00686   0.00689   1.24329
   D48       -2.95238   0.00094   0.00000   0.00299   0.00297  -2.94941
   D49       -0.85799   0.00199   0.00000   0.00828   0.00831  -0.84968
         Item               Value     Threshold  Converged?
 Maximum Force            0.067574     0.000450     NO 
 RMS     Force            0.012223     0.000300     NO 
 Maximum Displacement     0.248815     0.001800     NO 
 RMS     Displacement     0.078976     0.001200     NO 
 Predicted change in Energy=-2.271855D-02
 GradGradGradGradGradGradGradGradGradGradGradGradGradGradGradGradGradGrad

                          Input orientation:                          
 ---------------------------------------------------------------------
 Center     Atomic      Atomic             Coordinates (Angstroms)
 Number     Number       Type             X           Y           Z
 ---------------------------------------------------------------------
      1          6           0       -4.579593    0.280623   -0.079985
      2          1           0       -4.203581   -0.730680   -0.047135
      3          1           0       -4.267802    0.803251    0.811224
      4          1           0       -5.658681    0.258758   -0.119845
      5          6           0       -4.042649    0.993720   -1.307827
      6          6           0       -2.572508    0.929119   -1.569899
      7          1           0       -2.065805   -0.004625   -1.427878
      8          6           0       -1.886658    2.022986   -1.996277
      9          8           0       -4.804282    1.627114   -2.046223
     10          8           0       -2.232422    2.621190   -3.214177
     11          1           0       -1.456901    3.048430   -3.600168
     12          6           0       -0.756086    2.666916   -1.178507
     13          6           0       -0.671926    2.014240    0.221583
     14          1           0       -1.572158    2.218395    0.782326
     15          1           0       -0.554788    0.944174    0.131493
     16          1           0        0.173313    2.411546    0.763158
     17          6           0       -1.060849    4.174545   -1.027323
     18          1           0       -0.281098    4.650146   -0.451541
     19          1           0       -1.116487    4.648108   -1.996314
     20          1           0       -2.003795    4.315289   -0.518843
     21          6           0        0.589357    2.472924   -1.920621
     22          1           0        1.409671    2.760164   -1.279733
     23          1           0        0.715203    1.437048   -2.199576
     24          1           0        0.619668    3.080407   -2.812598
 ---------------------------------------------------------------------
                    Distance matrix (angstroms):
                    1          2          3          4          5
     1  C    0.000000
     2  H    1.079444   0.000000
     3  H    1.079170   1.758935   0.000000
     4  H    1.080045   1.761134   1.760087   0.000000
     5  C    1.518029   2.142148   2.139474   2.136125   0.000000
     6  C    2.582398   2.781033   2.925681   3.475127   1.494714
     7  H    2.866586   2.646449   3.242690   3.832634   2.217886
     8  C    3.736295   4.092672   3.878101   4.567456   2.486292
     9  O    2.393661   3.149029   3.021847   2.512634   1.235516
    10  O    4.561866   5.015043   4.863283   5.186061   3.091885
    11  H    5.459271   5.869409   5.692308   6.127795   4.020292
    12  C    4.639004   4.970804   4.445721   5.563761   3.690232
    13  C    4.285584   4.481002   3.839856   5.297737   3.839574
    14  H    3.680109   4.038494   3.044662   4.621013   3.460043
    15  H    4.084615   4.018798   3.777350   5.155841   3.773496
    16  H    5.276537   5.448611   4.723603   6.279041   4.906480
    17  C    5.333070   5.907518   5.003042   6.107124   4.368920
    18  H    6.140671   6.671035   5.682164   6.950735   5.315256
    19  H    5.894094   6.500831   5.709289   6.589314   4.731912
    20  H    4.806855   5.524796   4.385113   5.474745   3.976461
    21  C    5.908652   6.061789   5.817455   6.869011   4.900922
    22  H    6.592329   6.724127   6.358877   7.587093   5.731396
    23  H    5.819351   5.790205   5.856361   6.807353   4.860958
    24  H    6.506787   6.740616   6.496529   7.391231   5.325017
                    6          7          8          9         10
     6  C    0.000000
     7  H    1.071820   0.000000
     8  C    1.359681   2.113381   0.000000
     9  O    2.386398   3.247180   2.944781   0.000000
    10  O    2.383781   3.180177   1.400242   2.994456   0.000000
    11  H    3.139753   3.796149   1.951586   3.954724   0.965896
    12  C    2.544114   2.985747   1.536746   4.268725   2.515077
    13  C    2.828268   2.956253   2.528745   4.729606   3.822038
    14  H    2.862847   3.173406   2.803165   4.335542   4.070654
    15  H    2.639348   2.369606   2.732238   4.823593   4.101261
    16  H    3.896187   3.956282   3.465392   5.769264   4.653031
    17  C    3.621089   4.316925   2.500007   4.641212   2.927084
    18  H    4.510800   5.079892   3.444706   5.669296   3.944171
    19  H    4.016554   4.782494   2.735768   4.767465   2.614746
    20  H    3.590862   4.414957   2.729686   4.171558   3.191718
    21  C    3.536061   3.664823   2.517701   5.460999   3.107685
    22  H    4.392569   4.443527   3.452919   6.362744   4.126284
    23  H    3.385783   3.226134   2.674759   5.524885   3.334681
    24  H    4.045037   4.318175   2.840104   5.667330   2.916601
                   11         12         13         14         15
    11  H    0.000000
    12  C    2.549733   0.000000
    13  C    4.036274   1.547036   0.000000
    14  H    4.461894   2.170717   1.080060   0.000000
    15  H    4.378013   2.173583   1.080221   1.755638   0.000000
    16  H    4.701259   2.167731   1.079623   1.756230   1.755651
    17  C    2.836287   1.545536   2.525459   2.713446   3.469041
    18  H    3.723151   2.165015   2.748426   3.017065   3.761524
    19  H    2.290677   2.173435   3.471882   3.719137   4.308387
    20  H    3.376179   2.170038   2.759879   2.505258   3.726523
    21  C    2.709106   1.548736   2.527897   3.470282   2.803090
    22  H    3.699290   2.170125   2.672714   3.665638   3.024645
    23  H    3.045693   2.172522   2.849436   3.838524   2.699942
    24  H    2.221132   2.175759   3.465715   4.297749   3.822370
                   16         17         18         19         20
    16  H    0.000000
    17  C    2.799490   0.000000
    18  H    2.587144   1.079691   0.000000
    19  H    3.778952   1.079954   1.756189   0.000000
    20  H    3.163473   1.080513   1.756230   1.755279   0.000000
    21  C    2.716529   2.533115   2.766981   2.765332   3.476165
    22  H    2.413197   2.857910   2.667702   3.234083   3.827416
    23  H    3.165610   3.467337   3.791074   3.702339   4.301405
    24  H    3.665057   2.684862   2.974904   2.477548   3.697135
                   21         22         23         24
    21  C    0.000000
    22  H    1.079888   0.000000
    23  H    1.080136   1.754718   0.000000
    24  H    1.079619   1.753948   1.756574   0.000000
 Stoichiometry    C8H14O2
 Framework group  C1[X(C8H14O2)]
 Deg. of freedom    66
 Full point group                 C1      NOp   1
 Largest Abelian subgroup         C1      NOp   1
 Largest concise Abelian subgroup C1      NOp   1
                         Standard orientation:                         
 ---------------------------------------------------------------------
 Center     Atomic      Atomic             Coordinates (Angstroms)
 Number     Number       Type             X           Y           Z
 ---------------------------------------------------------------------
      1          6           0        3.055127    1.151418    0.070191
      2          1           0        3.185585    1.625276   -0.890871
      3          1           0        2.605507    1.855203    0.753664
      4          1           0        4.019097    0.850512    0.453224
      5          6           0        2.163515   -0.069108   -0.070362
      6          6           0        0.870079    0.087472   -0.802944
      7          1           0        0.857257    0.666217   -1.704989
      8          6           0       -0.268557   -0.502524   -0.351119
      9          8           0        2.495725   -1.147548    0.432734
     10          8           0       -0.324242   -1.897236   -0.239966
     11          1           0       -1.235232   -2.197879   -0.352512
     12          6           0       -1.504999    0.299702    0.083893
     13          6           0       -1.179109    1.811860    0.106129
     14          1           0       -0.432837    2.020933    0.858390
     15          1           0       -0.801288    2.129532   -0.854711
     16          1           0       -2.070236    2.377570    0.332958
     17          6           0       -1.911631   -0.161220    1.501948
     18          1           0       -2.777904    0.391837    1.832754
     19          1           0       -2.149461   -1.214659    1.503468
     20          1           0       -1.102378    0.011727    2.196718
     21          6           0       -2.664015    0.035581   -0.908832
     22          1           0       -3.475529    0.722774   -0.720760
     23          1           0       -2.323369    0.172931   -1.924602
     24          1           0       -3.033527   -0.972796   -0.798307
 ---------------------------------------------------------------------
 Rotational constants (GHZ):      2.1096576      0.8346560      0.7210751
 Standard basis: VSTO-6G (5D, 7F)
 There are    54 symmetry adapted basis functions of A   symmetry.
 Integral buffers will be    262144 words long.
 Regular integral format.
 Two-electron integral symmetry is turned off.
    54 basis functions,   324 primitive gaussians,    54 cartesian basis functions
    29 alpha electrons       29 beta electrons
       nuclear repulsion energy       338.3027930432 Hartrees.
 Do NDO integrals.
 One-electron integrals computed using PRISM.
 NBasis=    54 RedAO= F  NBF=    54
 NBsUse=    54 1.00D-04 NBFU=    54
 Initial guess read from the read-write file.
 B after Tr=     0.000000    0.000000    0.000000
         Rot=    1.000000    0.000000    0.000000    0.000000 Ang=   0.00 deg.
 Initial guess orbital symmetries:
       Occupied  (A) (A) (A) (A) (A) (A) (A) (A) (A) (A) (A) (A)
                 (A) (A) (A) (A) (A) (A) (A) (A) (A) (A) (A) (A)
                 (A) (A) (A) (A) (A)
       Virtual   (A) (A) (A) (A) (A) (A) (A) (A) (A) (A) (A) (A)
                 (A) (A) (A) (A) (A) (A) (A) (A) (A) (A) (A) (A)
                 (A)
 Requested convergence on RMS density matrix=1.00D-08 within 128 cycles.
 Requested convergence on MAX density matrix=1.00D-06.
 Requested convergence on             energy=1.00D-06.
 No special actions if energy rises.
 Overlap will be assumed to be unity.
 Keep J ints in memory in canonical form, NReq=889174.
 SCF Done:  E(RPM6) = -0.108944582891     A.U. after   20 cycles
             Convg  =    0.8792D-08             -V/T =  0.9990
 Calling FoFJK, ICntrl=      2127 FMM=F ISym2X=0 I1Cent= 0 IOpClX= 0 NMat=1 NMatS=1 NMatT=0.
 ***** Axes restored to original set *****
 -------------------------------------------------------------------
 Center     Atomic                   Forces (Hartrees/Bohr)
 Number     Number              X              Y              Z
 -------------------------------------------------------------------
      1        6           0.014286510    0.007992341   -0.018151824
      2        1           0.001673476   -0.008878960    0.002992502
      3        1           0.001541620    0.002714981    0.008614030
      4        1          -0.009995709   -0.000765203    0.001513984
      5        6          -0.004939287    0.008708706   -0.041792177
      6        6          -0.032708007    0.008140359    0.007436379
      7        1           0.003086935    0.000176003    0.017758809
      8        6           0.003245613    0.003960539   -0.021287504
      9        8           0.015566349   -0.014382391    0.023927293
     10        8          -0.004220222   -0.015089021    0.033293110
     11        1           0.005587214    0.013347215   -0.002724405
     12        6           0.011093874   -0.005354930   -0.006549861
     13        6          -0.000320892    0.008055731   -0.016481917
     14        1          -0.006667530   -0.000314943    0.006228234
     15        1           0.001158446   -0.008714748    0.002064839
     16        1           0.005803508    0.002050815    0.006120068
     17        6           0.000989571   -0.017971310   -0.004705358
     18        1           0.005071565    0.005608261    0.004607049
     19        1          -0.001321189    0.007021860   -0.005944615
     20        1          -0.007703031    0.004071331    0.004195240
     21        6          -0.016868377    0.001944636    0.005247894
     22        1           0.008243015    0.001939460    0.003128600
     23        1           0.003821257   -0.008020325   -0.002368467
     24        1           0.003575290    0.003759590   -0.007121902
 -------------------------------------------------------------------
 Cartesian Forces:  Max     0.041792177 RMS     0.011331602

 GradGradGradGradGradGradGradGradGradGradGradGradGradGradGradGradGradGrad
 Berny optimization.
 Using GEDIIS/GDIIS optimizer.
 Internal  Forces:  Max     0.031269010 RMS     0.006861298
 Search for a local minimum.
 Step number   2 out of a maximum of  122
 All quantities printed in internal units (Hartrees-Bohrs-Radians)
 Mixed Optimization -- RFO/linear search
 Update second derivatives using D2CorX and points    1    2
 DE= -2.29D-02 DEPred=-2.27D-02 R= 1.01D+00
 SS=  1.41D+00  RLast= 3.00D-01 DXNew= 5.0454D-01 8.9999D-01
 Trust test= 1.01D+00 RLast= 3.00D-01 DXMaxT set to 5.05D-01
 Use linear search instead of GDIIS.
     Eigenvalues ---    0.00236   0.00237   0.00237   0.00237   0.00237
     Eigenvalues ---    0.00237   0.00241   0.01247   0.01273   0.01485
     Eigenvalues ---    0.02337   0.04683   0.05203   0.05380   0.05553
     Eigenvalues ---    0.05559   0.05572   0.05606   0.05609   0.05618
     Eigenvalues ---    0.07164   0.07215   0.14934   0.15091   0.15342
     Eigenvalues ---    0.15999   0.16000   0.16000   0.16000   0.16000
     Eigenvalues ---    0.16000   0.16000   0.16000   0.16000   0.16000
     Eigenvalues ---    0.16000   0.16000   0.16357   0.21459   0.23639
     Eigenvalues ---    0.24993   0.24996   0.25216   0.27941   0.28519
     Eigenvalues ---    0.28519   0.28519   0.28519   0.34039   0.36598
     Eigenvalues ---    0.37230   0.37230   0.37230   0.37230   0.37230
     Eigenvalues ---    0.37230   0.37230   0.37230   0.37230   0.37230
     Eigenvalues ---    0.37230   0.38390   0.41054   0.54037   0.55331
     Eigenvalues ---    0.825361000.000001000.000001000.000001000.00000
     Eigenvalues --- 1000.000001000.000001000.000001000.000001000.00000
     Eigenvalues --- 1000.000001000.000001000.000001000.000001000.00000
     Eigenvalues --- 1000.000001000.000001000.000001000.000001000.00000
     Eigenvalues --- 1000.000001000.000001000.000001000.000001000.00000
     Eigenvalues --- 1000.000001000.000001000.000001000.000001000.00000
     Eigenvalues --- 1000.000001000.000001000.000001000.000001000.00000
     Eigenvalues --- 1000.000001000.000001000.000001000.000001000.00000
     Eigenvalues --- 1000.000001000.000001000.000001000.000001000.00000
     Eigenvalues --- 1000.000001000.00000
 RFO step:  Lambda=-1.78305260D-02 EMin= 2.36231270D-03
 Quartic linear search produced a step of  1.45576.
 Maximum step size (   0.505) exceeded in Quadratic search.
    -- Step size scaled by   0.884
 Iteration  1 RMS(Cart)=  0.12161054 RMS(Int)=  0.03184625
 Iteration  2 RMS(Cart)=  0.08553476 RMS(Int)=  0.00394192
 Iteration  3 RMS(Cart)=  0.00498829 RMS(Int)=  0.00046682
 Iteration  4 RMS(Cart)=  0.00001986 RMS(Int)=  0.00046674
 Iteration  5 RMS(Cart)=  0.00000000 RMS(Int)=  0.00046674
 Variable       Old X    -DE/DX   Delta X   Delta X   Delta X     New X
                                 (Linear)    (Quad)   (Total)
    R1        2.03985   0.00899   0.02598   0.00859   0.03457   2.07443
    R2        2.03934   0.00887   0.02523   0.00907   0.03429   2.07363
    R3        2.04099   0.00995   0.02763   0.01108   0.03871   2.07970
    R4        2.86866  -0.00722  -0.06044   0.04190  -0.01854   2.85012
    R5        2.82460  -0.02205  -0.12458   0.03955  -0.08503   2.73957
    R6        2.33479  -0.03127  -0.06295   0.00883  -0.05412   2.28067
    R7        2.02545   0.00366   0.00501   0.01144   0.01645   2.04189
    R8        2.56943   0.00353   0.01233  -0.00441   0.00791   2.57734
    R9        2.64607  -0.02767  -0.08186  -0.01253  -0.09440   2.55168
   R10        2.90403  -0.00359  -0.00895  -0.01025  -0.01920   2.88482
   R11        1.82528   0.01148   0.01622   0.01743   0.03365   1.85893
   R12        2.92347  -0.00233   0.01936  -0.04377  -0.02441   2.89906
   R13        2.92064  -0.00084   0.01523  -0.02792  -0.01269   2.90795
   R14        2.92669  -0.00049   0.02403  -0.03862  -0.01459   2.91209
   R15        2.04102   0.00873   0.02768   0.00485   0.03252   2.07354
   R16        2.04132   0.00859   0.02812   0.00348   0.03160   2.07292
   R17        2.04019   0.00837   0.02647   0.00472   0.03119   2.07138
   R18        2.04032   0.00859   0.02666   0.00558   0.03224   2.07256
   R19        2.04082   0.00848   0.02738   0.00399   0.03138   2.07219
   R20        2.04187   0.00923   0.02892   0.00559   0.03451   2.07638
   R21        2.04069   0.00863   0.02720   0.00503   0.03223   2.07293
   R22        2.04116   0.00875   0.02788   0.00464   0.03252   2.07368
   R23        2.04018   0.00810   0.02646   0.00337   0.02983   2.07002
    A1        1.90492  -0.00281  -0.00831  -0.01713  -0.02581   1.87912
    A2        1.90730  -0.00236  -0.00486  -0.01593  -0.02119   1.88611
    A3        1.91931   0.00375   0.01263   0.02279   0.03502   1.95433
    A4        1.90598  -0.00229  -0.00677  -0.01756  -0.02443   1.88155
    A5        1.91588   0.00207   0.00764   0.00951   0.01690   1.93278
    A6        1.91034   0.00157  -0.00043   0.01783   0.01713   1.92747
    A7        2.05942  -0.01354  -0.04803  -0.02798  -0.07619   1.98322
    A8        2.10154   0.00037   0.00463  -0.00419   0.00028   2.10182
    A9        2.12197   0.01313   0.04302   0.03254   0.07534   2.19731
   A10        2.07077  -0.00590  -0.03152  -0.00550  -0.03706   2.03371
   A11        2.11337   0.00710   0.02185   0.02568   0.04748   2.16085
   A12        2.09896  -0.00121   0.00953  -0.01986  -0.01038   2.08859
   A13        2.08505  -0.00232  -0.01071  -0.00151  -0.01325   2.07180
   A14        2.14281   0.01245   0.06472  -0.00556   0.05795   2.20076
   A15        2.05500  -0.01019  -0.05447   0.00610  -0.04930   2.00569
   A16        1.91589   0.00545   0.00692   0.04947   0.05639   1.97228
   A17        1.92286   0.00152   0.01780  -0.01299   0.00476   1.92763
   A18        1.89202  -0.00256  -0.02710   0.00526  -0.02179   1.87023
   A19        1.90885   0.00010  -0.00260   0.00573   0.00317   1.91201
   A20        1.91106   0.00015   0.00063   0.00089   0.00151   1.91258
   A21        1.91087  -0.00080   0.00034  -0.00151  -0.00125   1.90962
   A22        1.91810   0.00159   0.01087   0.00268   0.01350   1.93160
   A23        1.92279   0.00252   0.01770  -0.00104   0.01641   1.93920
   A24        1.92660   0.00292   0.02324  -0.00557   0.01740   1.94400
   A25        1.91912   0.00214   0.01235   0.00496   0.01705   1.93616
   A26        1.89751  -0.00290  -0.01911  -0.00313  -0.02249   1.87501
   A27        1.89922  -0.00234  -0.01661   0.00207  -0.01477   1.88445
   A28        1.89809  -0.00252  -0.01826   0.00277  -0.01576   1.88234
   A29        1.91713   0.00152   0.00945   0.00063   0.00987   1.92700
   A30        1.92852   0.00447   0.02603   0.00956   0.03510   1.96361
   A31        1.92323   0.00278   0.01833   0.00070   0.01867   1.94190
   A32        1.89920  -0.00291  -0.01664  -0.00381  -0.02079   1.87841
   A33        1.89855  -0.00260  -0.01760  -0.00388  -0.02154   1.87700
   A34        1.89670  -0.00349  -0.02029  -0.00350  -0.02438   1.87231
   A35        1.92008   0.00219   0.01375  -0.00047   0.01307   1.93315
   A36        1.92313   0.00247   0.01820  -0.00119   0.01662   1.93976
   A37        1.92816   0.00393   0.02551   0.00468   0.02971   1.95786
   A38        1.89638  -0.00286  -0.02076  -0.00206  -0.02291   1.87347
   A39        1.89582  -0.00330  -0.02156  -0.00290  -0.02475   1.87107
   A40        1.89967  -0.00267  -0.01595   0.00184  -0.01472   1.88495
    D1       -0.86537  -0.00072  -0.01936   0.00536  -0.01365  -0.87902
    D2        2.30047   0.00062   0.01593  -0.01219   0.00342   2.30389
    D3        1.23063  -0.00055  -0.01702   0.00446  -0.01213   1.21850
    D4       -1.88672   0.00080   0.01827  -0.01310   0.00494  -1.88177
    D5       -2.96083  -0.00112  -0.02091  -0.00026  -0.02095  -2.98177
    D6        0.20501   0.00023   0.01439  -0.01781  -0.00388   0.20114
    D7        0.73619  -0.00105  -0.00583  -0.08171  -0.08715   0.64904
    D8       -2.41981  -0.00173  -0.02680  -0.05651  -0.08278  -2.50259
    D9       -2.42995  -0.00261  -0.04156  -0.06449  -0.10659  -2.53653
   D10        0.69724  -0.00329  -0.06253  -0.03929  -0.10222   0.59502
   D11       -1.06260   0.01569   0.18434   0.21010   0.39553  -0.66707
   D12        2.05106   0.01284   0.14369   0.16835   0.31107   2.36214
   D13        2.06435   0.01497   0.16304   0.23583   0.39983   2.46418
   D14       -1.10516   0.01211   0.12238   0.19408   0.31538  -0.78979
   D15       -2.64348  -0.00867  -0.11644  -0.17638  -0.29037  -2.93385
   D16        0.52464  -0.00631  -0.07781  -0.13654  -0.21681   0.30783
   D17       -0.13132   0.00145   0.01631   0.04200   0.05828  -0.07304
   D18       -2.22221   0.00193   0.02142   0.04540   0.06692  -2.15529
   D19        1.96980   0.00147   0.02611   0.03567   0.06174   2.03154
   D20        2.98280  -0.00125  -0.02368   0.00082  -0.02292   2.95988
   D21        0.89191  -0.00077  -0.01858   0.00422  -0.01428   0.87763
   D22       -1.19926  -0.00123  -0.01389  -0.00551  -0.01946  -1.21873
   D23       -1.12915   0.00124   0.01406   0.00846   0.02255  -1.10660
   D24        0.96667   0.00111   0.01613   0.00033   0.01649   0.98316
   D25        3.06085   0.00120   0.01583   0.00341   0.01929   3.08014
   D26        0.95016  -0.00088  -0.00789   0.00755  -0.00035   0.94981
   D27        3.04598  -0.00101  -0.00583  -0.00058  -0.00640   3.03958
   D28       -1.14302  -0.00092  -0.00613   0.00250  -0.00361  -1.14663
   D29        3.05413   0.00067   0.00604   0.01045   0.01644   3.07057
   D30       -1.13324   0.00054   0.00811   0.00233   0.01039  -1.12285
   D31        0.96095   0.00063   0.00780   0.00541   0.01318   0.97413
   D32        3.13760   0.00005   0.00432  -0.01093  -0.00660   3.13100
   D33       -1.05008   0.00025   0.00594  -0.00920  -0.00324  -1.05332
   D34        1.04624   0.00057   0.00873  -0.00697   0.00198   1.04822
   D35        1.03934  -0.00034  -0.00130   0.00114  -0.00025   1.03909
   D36        3.13485  -0.00015   0.00032   0.00287   0.00311   3.13796
   D37       -1.05202   0.00017   0.00312   0.00510   0.00833  -1.04369
   D38       -1.06021  -0.00044  -0.00881   0.00078  -0.00817  -1.06838
   D39        1.03530  -0.00025  -0.00719   0.00251  -0.00481   1.03049
   D40        3.13161   0.00007  -0.00440   0.00474   0.00041   3.13202
   D41       -2.96482  -0.00124  -0.01811   0.00488  -0.01316  -2.97798
   D42       -0.87434  -0.00184  -0.02380   0.00128  -0.02264  -0.89698
   D43        1.22539  -0.00103  -0.01603   0.00582  -0.01011   1.21528
   D44       -0.85638   0.00020   0.00234  -0.00846  -0.00610  -0.86248
   D45        1.23410  -0.00040  -0.00336  -0.01206  -0.01559   1.21851
   D46       -2.94935   0.00040   0.00441  -0.00752  -0.00306  -2.95241
   D47        1.24329   0.00088   0.01003  -0.00664   0.00346   1.24675
   D48       -2.94941   0.00028   0.00433  -0.01024  -0.00603  -2.95544
   D49       -0.84968   0.00108   0.01210  -0.00570   0.00650  -0.84317
         Item               Value     Threshold  Converged?
 Maximum Force            0.031269     0.000450     NO 
 RMS     Force            0.006861     0.000300     NO 
 Maximum Displacement     0.874750     0.001800     NO 
 RMS     Displacement     0.190635     0.001200     NO 
 Predicted change in Energy=-2.853133D-02
 GradGradGradGradGradGradGradGradGradGradGradGradGradGradGradGradGradGrad

                          Input orientation:                          
 ---------------------------------------------------------------------
 Center     Atomic      Atomic             Coordinates (Angstroms)
 Number     Number       Type             X           Y           Z
 ---------------------------------------------------------------------
      1          6           0       -4.698816    0.263690   -0.228885
      2          1           0       -4.243317   -0.711403   -0.012679
      3          1           0       -4.576760    0.893046    0.661688
      4          1           0       -5.776981    0.109282   -0.386636
      5          6           0       -4.078727    0.920961   -1.436446
      6          6           0       -2.630399    0.967387   -1.393229
      7          1           0       -2.132697    0.109235   -0.964981
      8          6           0       -1.890149    2.010786   -1.865972
      9          8           0       -4.776088    1.387321   -2.304054
     10          8           0       -2.288801    2.628108   -2.998787
     11          1           0       -1.607862    3.236095   -3.365316
     12          6           0       -0.701342    2.661358   -1.163153
     13          6           0       -0.497962    2.045319    0.227043
     14          1           0       -1.361646    2.239329    0.875436
     15          1           0       -0.369497    0.957550    0.167579
     16          1           0        0.391018    2.462509    0.714042
     17          6           0       -1.022182    4.159669   -1.021422
     18          1           0       -0.202726    4.679608   -0.510523
     19          1           0       -1.173518    4.650031   -1.990484
     20          1           0       -1.934521    4.317576   -0.429807
     21          6           0        0.572088    2.455054   -2.006087
     22          1           0        1.463148    2.765806   -1.446862
     23          1           0        0.704311    1.398465   -2.271237
     24          1           0        0.552570    3.037004   -2.933917
 ---------------------------------------------------------------------
                    Distance matrix (angstroms):
                    1          2          3          4          5
     1  C    0.000000
     2  H    1.097740   0.000000
     3  H    1.097317   1.772064   0.000000
     4  H    1.100531   1.779184   1.775894   0.000000
     5  C    1.508217   2.172283   2.156613   2.155224   0.000000
     6  C    2.475728   2.706614   2.831347   3.413290   1.449715
     7  H    2.674072   2.456633   3.038726   3.689891   2.160604
     8  C    3.690665   4.047519   3.854385   4.572922   2.482355
     9  O    2.361111   3.152601   3.013249   2.512302   1.206876
    10  O    4.367035   4.887669   4.652340   5.033410   2.925593
    11  H    5.312851   5.811070   5.524581   6.002587   3.896865
    12  C    4.754099   5.024410   4.634202   5.733950   3.809251
    13  C    4.585765   4.656679   4.260661   5.656225   4.105271
    14  H    4.032291   4.218957   3.492152   5.062125   3.803344
    15  H    4.402456   4.221892   4.236668   5.501599   4.041363
    16  H    5.624083   5.663823   5.210064   6.692785   5.194187
    17  C    5.415201   5.926265   5.112603   6.278272   4.472577
    18  H    6.308286   6.755533   5.902906   7.209407   5.477969
    19  H    5.896689   6.486938   5.721102   6.662027   4.759534
    20  H    4.910772   5.549339   4.460963   5.698781   4.141007
    21  C    5.978540   6.098217   6.005624   6.959594   4.930315
    22  H    6.761202   6.834589   6.665861   7.784643   5.840885
    23  H    5.886654   5.833665   6.061947   6.871744   4.878764
    24  H    6.525758   6.751646   6.620798   7.424515   5.307445
                    6          7          8          9         10
     6  C    0.000000
     7  H    1.080523   0.000000
     8  C    1.363869   2.118139   0.000000
     9  O    2.368528   3.227095   2.984840   0.000000
    10  O    2.335059   3.241212   1.350289   2.865100   0.000000
    11  H    3.175176   3.976721   1.956809   3.818625   0.983702
    12  C    2.577544   2.932810   1.526584   4.419092   2.427073
    13  C    2.886955   2.800303   2.513978   5.014158   3.735335
    14  H    2.893858   2.918725   2.801226   4.742731   4.002546
    15  H    2.747343   2.260796   2.749002   5.070672   4.062064
    16  H    3.975543   3.837466   3.473362   6.079796   4.581916
    17  C    3.593782   4.200291   2.466643   4.839718   2.803565
    18  H    4.522539   4.981930   3.436168   5.913675   3.840810
    19  H    4.005132   4.752948   2.737641   4.870535   2.519664
    20  H    3.554742   4.246859   2.717686   4.491514   3.095073
    21  C    3.583947   3.728623   2.505916   5.461852   3.033165
    22  H    4.471501   4.496630   3.462702   6.446943   4.062580
    23  H    3.475201   3.378910   2.696367   5.480509   3.316636
    24  H    4.097357   4.433870   2.856660   5.613625   2.871376
                   11         12         13         14         15
    11  H    0.000000
    12  C    2.449821   0.000000
    13  C    3.943966   1.534116   0.000000
    14  H    4.363272   2.184023   1.097271   0.000000
    15  H    4.382540   2.187219   1.096941   1.768723   0.000000
[...]
     17          6           0       -0.581143    4.296673   -1.151998
     18          1           0        0.431264    4.648863   -0.921137
     19          1           0       -0.835160    4.680224   -2.149039
     20          1           0       -1.260122    4.770934   -0.431707
     21          6           0        0.329193    2.122415   -2.062327
     22          1           0        1.361828    2.396643   -1.818307
     23          1           0        0.270141    1.026588   -2.035659
     24          1           0        0.145382    2.428944   -3.097710
 ---------------------------------------------------------------------
                    Distance matrix (angstroms):
                    1          2          3          4          5
     1  C    0.000000
     2  H    1.095444   0.000000
     3  H    1.095501   1.770787   0.000000
     4  H    1.099133   1.770107   1.769617   0.000000
     5  C    1.511468   2.168813   2.168295   2.159509   0.000000
     6  C    2.512405   2.802085   2.812506   3.452074   1.471293
     7  H    2.609010   2.645102   2.636435   3.688758   2.177622
     8  C    3.794123   4.086763   4.114338   4.635312   2.494466
     9  O    2.372066   3.102442   3.092667   2.517452   1.213371
    10  O    4.297400   4.734825   4.781909   4.892506   2.800515
    11  H    5.287854   5.696162   5.736879   5.887947   3.795628
    12  C    5.082917   5.220526   5.255078   6.023613   3.944928
    13  C    5.179293   5.220628   5.084350   6.231573   4.401622
    14  H    4.981580   5.191385   4.685907   6.009768   4.298088
    15  H    4.781282   4.616454   4.712822   5.868677   4.249051
    16  H    6.259255   6.252943   6.131406   7.319477   5.492686
    17  C    6.175495   6.495871   6.275879   7.032408   4.907196
    18  H    7.123800   7.362950   7.184149   8.027085   5.914974
    19  H    6.455383   6.825677   6.693064   7.201607   5.053544
    20  H    6.104568   6.567302   6.048698   6.932935   4.900306
    21  C    5.772450   5.675147   6.144084   6.679272   4.674254
    22  H    6.754632   6.614590   7.048444   7.700393   5.711699
    23  H    5.356732   5.068553   5.792826   6.272560   4.458972
    24  H    6.082254   6.042082   6.590385   6.872237   4.845612
                    6          7          8          9         10
     6  C    0.000000
     7  H    1.087158   0.000000
     8  C    1.350715   2.114873   0.000000
     9  O    2.379867   3.293465   2.921758   0.000000
    10  O    2.316333   3.312625   1.363116   2.621577   0.000000
    11  H    3.178424   4.080256   1.977044   3.568138   0.997682
    12  C    2.577967   2.819702   1.536786   4.458535   2.466784
    13  C    2.942839   2.604395   2.533869   5.210236   3.761599
    14  H    2.965356   2.587344   2.778026   5.122455   3.965032
    15  H    2.841004   2.196089   2.836454   5.213810   4.168653
    16  H    4.029534   3.666360   3.492870   6.270767   4.605732
    17  C    3.712157   4.103141   2.504019   5.169168   2.823545
    18  H    4.634861   4.872485   3.471184   6.236137   3.857654
    19  H    4.066466   4.681014   2.743111   5.064891   2.512215
    20  H    3.805330   4.166682   2.801103   5.160621   3.127614
    21  C    3.420276   3.633179   2.470383   5.124807   3.092983
    22  H    4.389156   4.454866   3.447429   6.199435   4.077705
    23  H    3.277545   3.322339   2.723841   5.044579   3.502888
    24  H    3.812786   4.276075   2.728640   5.046550   2.843083
                   11         12         13         14         15
    11  H    0.000000
    12  C    2.477880   0.000000
    13  C    3.936322   1.534036   0.000000
    14  H    4.229039   2.190578   1.096905   0.000000
    15  H    4.511539   2.193331   1.096641   1.769608   0.000000
    16  H    4.593626   2.183644   1.096336   1.766783   1.762900
    17  C    2.373574   1.539159   2.504268   2.792988   3.477530
    18  H    3.317331   2.188143   2.778453   3.188527   3.771435
    19  H    1.737576   2.203839   3.481473   3.795588   4.355161
    20  H    2.835733   2.193165   2.738431   2.575881   3.776638
    21  C    2.951954   1.537852   2.518485   3.485724   2.743933
    22  H    3.786339   2.188181   2.770302   3.803835   3.060945
    23  H    3.620424   2.191102   2.783333   3.774433   2.556599
    24  H    2.506229   2.201211   3.490142   4.354520   3.771936
                   16         17         18         19         20
    16  H    0.000000
    17  C    2.727309   0.000000
    18  H    2.548187   1.096495   0.000000
    19  H    3.762445   1.098056   1.764244   0.000000
    20  H    3.028621   1.097613   1.765001   1.771454   0.000000
    21  C    2.815874   2.526818   2.774108   2.811694   3.492778
    22  H    2.622375   2.798074   2.596798   3.186044   3.799281
    23  H    3.200009   3.492706   3.793283   3.818848   4.351378
    24  H    3.818443   2.793214   3.122057   2.632432   3.816796
                   21         22         23         24
    21  C    0.000000
    22  H    1.095939   0.000000
    23  H    1.097741   1.765240   0.000000
    24  H    1.095338   1.765689   1.763553   0.000000
 Stoichiometry    C8H14O2
 Framework group  C1[X(C8H14O2)]
 Deg. of freedom    66
 Full point group                 C1      NOp   1
 Largest Abelian subgroup         C1      NOp   1
 Largest concise Abelian subgroup C1      NOp   1
                         Standard orientation:                         
 ---------------------------------------------------------------------
 Center     Atomic      Atomic             Coordinates (Angstroms)
 Number     Number       Type             X           Y           Z
 ---------------------------------------------------------------------
      1          6           0       -3.353252    1.033699    0.024201
      2          1           0       -3.268770    1.660564    0.918572
      3          1           0       -3.309654    1.690499   -0.851490
      4          1           0       -4.349040    0.568632    0.038811
      5          6           0       -2.272781   -0.022344   -0.019285
      6          6           0       -0.898195    0.502236   -0.025002
      7          1           0       -0.803969    1.585221   -0.038320
      8          6           0        0.209259   -0.271005   -0.016305
      9          8           0       -2.560429   -1.200751   -0.049041
     10          8           0        0.026098   -1.621039    0.027788
     11          1           0        0.884419   -2.129078    0.004297
     12          6           0        1.664490    0.222799   -0.003203
     13          6           0        1.761073    1.677730   -0.479765
     14          1           0        1.332316    1.805006   -1.481348
     15          1           0        1.235864    2.364723    0.194636
     16          1           0        2.804806    2.009947   -0.526730
     17          6           0        2.504768   -0.670097   -0.933622
     18          1           0        3.565254   -0.394157   -0.894512
     19          1           0        2.438968   -1.732197   -0.662810
     20          1           0        2.184512   -0.574316   -1.979097
     21          6           0        2.163782    0.106282    1.446666
     22          1           0        3.203107    0.441981    1.537172
     23          1           0        1.563523    0.723705    2.127484
     24          1           0        2.118456   -0.922015    1.821255
 ---------------------------------------------------------------------
 Rotational constants (GHZ):      2.4034920      0.7587254      0.6646668

 **********************************************************************

            Population analysis using the SCF density.

 **********************************************************************

 Orbital symmetries:
       Occupied  (A) (A) (A) (A) (A) (A) (A) (A) (A) (A) (A) (A)
                 (A) (A) (A) (A) (A) (A) (A) (A) (A) (A) (A) (A)
                 (A) (A) (A) (A) (A)
       Virtual   (A) (A) (A) (A) (A) (A) (A) (A) (A) (A) (A) (A)
                 (A) (A) (A) (A) (A) (A) (A) (A) (A) (A) (A) (A)
                 (A)
 The electronic state is 1-A.
 Alpha  occ. eigenvalues --   -1.15675  -1.13521  -1.07823  -0.99695  -0.95195
 Alpha  occ. eigenvalues --   -0.91526  -0.90438  -0.81328  -0.73895  -0.70371
 Alpha  occ. eigenvalues --   -0.64131  -0.58737  -0.58038  -0.56489  -0.55745
 Alpha  occ. eigenvalues --   -0.55466  -0.53304  -0.52299  -0.50582  -0.49641
 Alpha  occ. eigenvalues --   -0.49385  -0.48966  -0.47479  -0.46655  -0.45864
 Alpha  occ. eigenvalues --   -0.45712  -0.43859  -0.35330  -0.35080
 Alpha virt. eigenvalues --    0.01028   0.07506   0.08239   0.10391   0.11981
 Alpha virt. eigenvalues --    0.12670   0.13894   0.14655   0.16500   0.17217
 Alpha virt. eigenvalues --    0.18756   0.19193   0.19408   0.19523   0.19755
 Alpha virt. eigenvalues --    0.19857   0.19994   0.20841   0.20994   0.21626
 Alpha virt. eigenvalues --    0.22612   0.23024   0.23354   0.23961   0.25033
          Condensed to atoms (all electrons):
              1          2          3          4          5          6
     1  C    4.643689   0.000000   0.000000   0.000000   0.000000   0.000000
     2  H    0.000000   0.817250   0.000000   0.000000   0.000000   0.000000
     3  H    0.000000   0.000000   0.817175   0.000000   0.000000   0.000000
     4  H    0.000000   0.000000   0.000000   0.809064   0.000000   0.000000
     5  C    0.000000   0.000000   0.000000   0.000000   3.350976   0.000000
     6  C    0.000000   0.000000   0.000000   0.000000   0.000000   4.586602
     7  H    0.000000   0.000000   0.000000   0.000000   0.000000   0.000000
     8  C    0.000000   0.000000   0.000000   0.000000   0.000000   0.000000
     9  O    0.000000   0.000000   0.000000   0.000000   0.000000   0.000000
    10  O    0.000000   0.000000   0.000000   0.000000   0.000000   0.000000
    11  H    0.000000   0.000000   0.000000   0.000000   0.000000   0.000000
    12  C    0.000000   0.000000   0.000000   0.000000   0.000000   0.000000
    13  C    0.000000   0.000000   0.000000   0.000000   0.000000   0.000000
    14  H    0.000000   0.000000   0.000000   0.000000   0.000000   0.000000
    15  H    0.000000   0.000000   0.000000   0.000000   0.000000   0.000000
    16  H    0.000000   0.000000   0.000000   0.000000   0.000000   0.000000
    17  C    0.000000   0.000000   0.000000   0.000000   0.000000   0.000000
    18  H    0.000000   0.000000   0.000000   0.000000   0.000000   0.000000
    19  H    0.000000   0.000000   0.000000   0.000000   0.000000   0.000000
    20  H    0.000000   0.000000   0.000000   0.000000   0.000000   0.000000
    21  C    0.000000   0.000000   0.000000   0.000000   0.000000   0.000000
    22  H    0.000000   0.000000   0.000000   0.000000   0.000000   0.000000
    23  H    0.000000   0.000000   0.000000   0.000000   0.000000   0.000000
    24  H    0.000000   0.000000   0.000000   0.000000   0.000000   0.000000
              7          8          9         10         11         12
     1  C    0.000000   0.000000   0.000000   0.000000   0.000000   0.000000
     2  H    0.000000   0.000000   0.000000   0.000000   0.000000   0.000000
     3  H    0.000000   0.000000   0.000000   0.000000   0.000000   0.000000
     4  H    0.000000   0.000000   0.000000   0.000000   0.000000   0.000000
     5  C    0.000000   0.000000   0.000000   0.000000   0.000000   0.000000
     6  C    0.000000   0.000000   0.000000   0.000000   0.000000   0.000000
     7  H    0.804496   0.000000   0.000000   0.000000   0.000000   0.000000
     8  C    0.000000   3.628186   0.000000   0.000000   0.000000   0.000000
     9  O    0.000000   0.000000   6.508597   0.000000   0.000000   0.000000
    10  O    0.000000   0.000000   0.000000   6.422163   0.000000   0.000000
    11  H    0.000000   0.000000   0.000000   0.000000   0.682964   0.000000
    12  C    0.000000   0.000000   0.000000   0.000000   0.000000   3.857875
    13  C    0.000000   0.000000   0.000000   0.000000   0.000000   0.000000
    14  H    0.000000   0.000000   0.000000   0.000000   0.000000   0.000000
    15  H    0.000000   0.000000   0.000000   0.000000   0.000000   0.000000
    16  H    0.000000   0.000000   0.000000   0.000000   0.000000   0.000000
    17  C    0.000000   0.000000   0.000000   0.000000   0.000000   0.000000
    18  H    0.000000   0.000000   0.000000   0.000000   0.000000   0.000000
    19  H    0.000000   0.000000   0.000000   0.000000   0.000000   0.000000
    20  H    0.000000   0.000000   0.000000   0.000000   0.000000   0.000000
    21  C    0.000000   0.000000   0.000000   0.000000   0.000000   0.000000
    22  H    0.000000   0.000000   0.000000   0.000000   0.000000   0.000000
    23  H    0.000000   0.000000   0.000000   0.000000   0.000000   0.000000
    24  H    0.000000   0.000000   0.000000   0.000000   0.000000   0.000000
             13         14         15         16         17         18
     1  C    0.000000   0.000000   0.000000   0.000000   0.000000   0.000000
     2  H    0.000000   0.000000   0.000000   0.000000   0.000000   0.000000
     3  H    0.000000   0.000000   0.000000   0.000000   0.000000   0.000000
     4  H    0.000000   0.000000   0.000000   0.000000   0.000000   0.000000
     5  C    0.000000   0.000000   0.000000   0.000000   0.000000   0.000000
     6  C    0.000000   0.000000   0.000000   0.000000   0.000000   0.000000
     7  H    0.000000   0.000000   0.000000   0.000000   0.000000   0.000000
     8  C    0.000000   0.000000   0.000000   0.000000   0.000000   0.000000
     9  O    0.000000   0.000000   0.000000   0.000000   0.000000   0.000000
    10  O    0.000000   0.000000   0.000000   0.000000   0.000000   0.000000
    11  H    0.000000   0.000000   0.000000   0.000000   0.000000   0.000000
    12  C    0.000000   0.000000   0.000000   0.000000   0.000000   0.000000
    13  C    4.501824   0.000000   0.000000   0.000000   0.000000   0.000000
    14  H    0.000000   0.836126   0.000000   0.000000   0.000000   0.000000
    15  H    0.000000   0.000000   0.838145   0.000000   0.000000   0.000000
    16  H    0.000000   0.000000   0.000000   0.838767   0.000000   0.000000
    17  C    0.000000   0.000000   0.000000   0.000000   4.518867   0.000000
    18  H    0.000000   0.000000   0.000000   0.000000   0.000000   0.829406
    19  H    0.000000   0.000000   0.000000   0.000000   0.000000   0.000000
    20  H    0.000000   0.000000   0.000000   0.000000   0.000000   0.000000
    21  C    0.000000   0.000000   0.000000   0.000000   0.000000   0.000000
    22  H    0.000000   0.000000   0.000000   0.000000   0.000000   0.000000
    23  H    0.000000   0.000000   0.000000   0.000000   0.000000   0.000000
    24  H    0.000000   0.000000   0.000000   0.000000   0.000000   0.000000
             19         20         21         22         23         24
     1  C    0.000000   0.000000   0.000000   0.000000   0.000000   0.000000
     2  H    0.000000   0.000000   0.000000   0.000000   0.000000   0.000000
     3  H    0.000000   0.000000   0.000000   0.000000   0.000000   0.000000
     4  H    0.000000   0.000000   0.000000   0.000000   0.000000   0.000000
     5  C    0.000000   0.000000   0.000000   0.000000   0.000000   0.000000
     6  C    0.000000   0.000000   0.000000   0.000000   0.000000   0.000000
     7  H    0.000000   0.000000   0.000000   0.000000   0.000000   0.000000
     8  C    0.000000   0.000000   0.000000   0.000000   0.000000   0.000000
     9  O    0.000000   0.000000   0.000000   0.000000   0.000000   0.000000
    10  O    0.000000   0.000000   0.000000   0.000000   0.000000   0.000000
    11  H    0.000000   0.000000   0.000000   0.000000   0.000000   0.000000
    12  C    0.000000   0.000000   0.000000   0.000000   0.000000   0.000000
    13  C    0.000000   0.000000   0.000000   0.000000   0.000000   0.000000
    14  H    0.000000   0.000000   0.000000   0.000000   0.000000   0.000000
    15  H    0.000000   0.000000   0.000000   0.000000   0.000000   0.000000
    16  H    0.000000   0.000000   0.000000   0.000000   0.000000   0.000000
    17  C    0.000000   0.000000   0.000000   0.000000   0.000000   0.000000
    18  H    0.000000   0.000000   0.000000   0.000000   0.000000   0.000000
    19  H    0.854192   0.000000   0.000000   0.000000   0.000000   0.000000
    20  H    0.000000   0.830033   0.000000   0.000000   0.000000   0.000000
    21  C    0.000000   0.000000   4.515353   0.000000   0.000000   0.000000
    22  H    0.000000   0.000000   0.000000   0.834986   0.000000   0.000000
    23  H    0.000000   0.000000   0.000000   0.000000   0.831423   0.000000
    24  H    0.000000   0.000000   0.000000   0.000000   0.000000   0.841841
 Mulliken atomic charges:
              1
     1  C   -0.643689
     2  H    0.182750
     3  H    0.182825
     4  H    0.190936
     5  C    0.649024
     6  C   -0.586602
     7  H    0.195504
     8  C    0.371814
     9  O   -0.508597
    10  O   -0.422163
    11  H    0.317036
    12  C    0.142125
    13  C   -0.501824
    14  H    0.163874
    15  H    0.161855
    16  H    0.161233
    17  C   -0.518867
    18  H    0.170594
    19  H    0.145808
    20  H    0.169967
    21  C   -0.515353
    22  H    0.165014
    23  H    0.168577
    24  H    0.158159
 Sum of Mulliken atomic charges =   0.00000
 Mulliken charges with hydrogens summed into heavy atoms:
              1
     1  C   -0.087178
     5  C    0.649024
     6  C   -0.391097
     8  C    0.371814
     9  O   -0.508597
    10  O   -0.105127
    12  C    0.142125
    13  C   -0.014862
    17  C   -0.032499
    21  C   -0.023603
 Sum of Mulliken charges with hydrogens summed into heavy atoms =   0.00000
 Charge=              0.0000 electrons
 Dipole moment (field-independent basis, Debye):
    X=              4.8481    Y=              2.9134    Z=              0.0471  Tot=              5.6563
 N-N= 3.370041137762D+02 E-N=-5.263646875002D+02  KE=-1.101110202045D+02
 1|1|UNPC-DESKTOP-K2VF0AK|FOpt|RPM6|ZDO|C8H14O2|MELIH|27-Nov-2024|0||# 
 opt pm6 geom=connectivity||Title Card Required||0,1|C,-4.7526932911,-0
 .2305064908,-0.6625536885|H,-4.1295987068,-1.1284546356,-0.7363111853|
 H,-4.8844841019,0.0003295256,0.4002103897|H,-5.7420567002,-0.479647675
 ,-1.0714335649|C,-4.1440136877,0.932322701,-1.4121346243|C,-2.80646032
 42,1.3324846011,-0.9478872728|H,-2.4158762863,0.7818759191,-0.09572106
 9|C,-2.070832849,2.3160581955,-1.5099058655|O,-4.7471398693,1.46763453
 84,-2.318749178|O,-2.6031762034,2.9513366777,-2.5920869938|H,-2.018959
 5913,3.6824399878,-2.9378456053|C,-0.6648106324,2.7615612078,-1.078234
 4476|C,-0.3547155554,2.3089449732,0.3543315973|H,-1.1002183078,2.68216
 13471,1.067167489|H,-0.3313587869,1.2160586546,0.4419403456|H,0.624156
 0248,2.677901413,0.6824093158|C,-0.5811430732,4.2966730009,-1.15199765
 14|H,0.4312636086,4.6488634545,-0.921136691|H,-0.835159949,4.680223691
 4,-2.149038688|H,-1.2601222612,4.770933609,-0.4317071481|C,0.329193123
 7,2.1224150872,-2.0623272716|H,1.3618281602,2.3966434622,-1.8183074005
 |H,0.2701414963,1.0265883224,-2.0356590958|H,0.1453820538,2.428944272,
 -3.0977102961||Version=IA32W-G09RevA.02|State=1-A|HF=-0.1560417|RMSD=7
 .302e-009|RMSF=1.332e-005|Dipole=1.9884369,0.3034864,0.952013|PG=C01 [
 X(C8H14O2)]||@


 ... SUBJECTS WHICH DISCLOSE THEIR FULL POWER, MEANING AND BEAUTY AS SOON
 AS THEY ARE PRESENTED TO THE MIND HAVE VERY LITTLE OF THOSE QUALITIES
 TO DISCLOSE.
                           -- CHARLES DUTTON (1882)
 Job cpu time:  0 days  0 hours  0 minutes  9.0 seconds.
 File lengths (MBytes):  RWF=      5 Int=      0 D2E=      0 Chk=      2 Scr=      1
 Normal termination of Gaussian 09 at Wed Nov 27 23:41:03 2024.
