 Entering Link 1 = C:\G09W\l1.exe PID=     13652.
  
 Copyright (c) 1988,1990,1992,1993,1995,1998,2003,2009, Gaussian, Inc.
                  All Rights Reserved.
  
 This is part of the Gaussian(R) 09 program.  It is based on
 the Gaussian(R) 03 system (copyright 2003, Gaussian, Inc.),
 the Gaussian(R) 98 system (copyright 1998, Gaussian, Inc.),
 the Gaussian(R) 94 system (copyright 1995, Gaussian, Inc.),
 the Gaussian 92(TM) system (copyright 1992, Gaussian, Inc.),
 the Gaussian 90(TM) system (copyright 1990, Gaussian, Inc.),
 the Gaussian 88(TM) system (copyright 1988, Gaussian, Inc.),
 the Gaussian 86(TM) system (copyright 1986, Carnegie Mellon
 University), and the Gaussian 82(TM) system (copyright 1983,
 Carnegie Mellon University). Gaussian is a federally registered
 trademark of Gaussian, Inc.
  
 This software contains proprietary and confidential information,
 including trade secrets, belonging to Gaussian, Inc.
  
 This software is provided under written license and may be
 used, copied, transmitted, or stored only in accord with that
 written license.
  
 The following legend is applicable only to US Government
 contracts under FAR:
  
                    RESTRICTED RIGHTS LEGEND
  
 Use, reproduction and disclosure by the US Government is
 subject to restrictions as set forth in subparagraphs (a)
 and (c) of the Commercial Computer Software - Restricted
 Rights clause in FAR 52.227-19.
  
 Gaussian, Inc.
 340 Quinnipiac St., Bldg. 40, Wallingford CT 06492
  
  
 ---------------------------------------------------------------
 Warning -- This program may not be used in any manner that
 competes with the business of Gaussian, Inc. or will provide
 assistance to any competitor of Gaussian, Inc.  The licensee
 of this program is prohibited from giving any competitor of
 Gaussian, Inc. access to this program.  By using this program,
 the user acknowledges that Gaussian, Inc. is engaged in the
 business of creating and licensing software in the field of
 computational chemistry and represents and warrants to the
 licensee that it is not a competitor of Gaussian, Inc. and that
 it will not use this program in any manner prohibited above.
 ---------------------------------------------------------------
  

 Cite this work as:
 Gaussian 09, Revision A.02,
 M. J. Frisch, G. W. Trucks, H. B. Schlegel, G. E. Scuseria, 
 M. A. Robb, J. R. Cheeseman, G. Scalmani, V. Barone, B. Mennucci, 
 G. A. Petersson, H. Nakatsuji, M. Caricato, X. Li, H. P. Hratchian, 
 A. F. Izmaylov, J. Bloino, G. Zheng, J. L. Sonnenberg, M. Hada, 
 M. Ehara, K. Toyota, R. Fukuda, J. Hasegawa, M. Ishida, T. Nakajima, 
 Y. Honda, O. Kitao, H. Nakai, T. Vreven, J. A. Montgomery, Jr., 
 J. E. Peralta, F. Ogliaro, M. Bearpark, J. J. Heyd, E. Brothers, 
 K. N. Kudin, V. N. Staroverov, R. Kobayashi, J. Normand, 
 K. Raghavachari, A. Rendell, J. C. Burant, S. S. Iyengar, J. Tomasi, 
 M. Cossi, N. Rega, J. M. Millam, M. Klene, J. E. Knox, J. B. Cross, 
 V. Bakken, C. Adamo, J. Jaramillo, R. Gomperts, R. E. Stratmann, 
 O. Yazyev, A. J. Austin, R. Cammi, C. Pomelli, J. W. Ochterski, 
 R. L. Martin, K. Morokuma, V. G. Zakrzewski, G. A. Voth, 
 P. Salvador, J. J. Dannenberg, S. Dapprich, A. D. Daniels, 
 O. Farkas, J. B. Foresman, J. V. Ortiz, J. Cioslowski, 
 and D. J. Fox, Gaussian, Inc., Wallingford CT, 2009.
 
 ******************************************
 Gaussian 09:  IA32W-G09RevA.02 11-Jun-2009
                28-Nov-2024 
 ******************************************
 %chk=C:\G09W\Midterm1\DMHDE1opt2222.chk
 ---------------------------------
 # opt hf/6-311g geom=connectivity
 ---------------------------------
 1/18=20,19=15,38=1,57=2/1,3;
 2/9=110,12=2,17=6,18=5,40=1/2;
 3/5=4,6=6,11=9,16=1,25=1,30=1,71=1/1,2,3;
 4//1;
 5/5=2,38=5/2;
 6/7=2,8=2,9=2,10=2,28=1/1;
 7//1,2,3,16;
 1/18=20,19=15/3(2);
 2/9=110/2;
 99//99;
 2/9=110/2;
 3/5=4,6=6,11=9,16=1,25=1,30=1,71=1/1,2,3;
 4/5=5,16=3/1;
 5/5=2,38=5/2;
 7//1,2,3,16;
 1/18=20,19=15/3(-5);
 2/9=110/2;
 6/7=2,8=2,9=2,10=2,19=2,28=1/1;
 99/9=1/99;
 -------------------
 Title Card Required
 -------------------
 Symbolic Z-matrix:
 Charge =  0 Multiplicity = 1
 C                    -3.35325   1.0337    0.0242 
 H                    -3.26877   1.66056   0.91857 
 H                    -3.30965   1.6905   -0.85149 
 H                    -4.34904   0.56863   0.03881 
 C                    -2.27278  -0.02234  -0.01928 
 C                    -0.89819   0.50224  -0.025 
 H                    -0.80397   1.58522  -0.03832 
 C                     0.20926  -0.271    -0.0163 
 O                    -2.56043  -1.20075  -0.04904 
 O                     0.0261   -1.62104   0.02779 
 H                     0.88442  -2.12908   0.0043 
 C                     1.66449   0.2228   -0.0032 
 C                     1.76107   1.67773  -0.47977 
 H                     1.33232   1.80501  -1.48135 
 H                     1.23586   2.36472   0.19464 
 H                     2.80481   2.00995  -0.52673 
 C                     2.50477  -0.6701   -0.93362 
 H                     3.56525  -0.39416  -0.89451 
 H                     2.43897  -1.7322   -0.66281 
 H                     2.18451  -0.57432  -1.9791 
 C                     2.16378   0.10628   1.44667 
 H                     3.20311   0.44198   1.53717 
 H                     1.56352   0.7237    2.12748 
 H                     2.11846  -0.92201   1.82125 
 

 GradGradGradGradGradGradGradGradGradGradGradGradGradGradGradGradGradGrad
 Berny optimization.
 Initialization pass.
                           ----------------------------
                           !    Initial Parameters    !
                           ! (Angstroms and Degrees)  !
 --------------------------                            --------------------------
 ! Name  Definition              Value          Derivative Info.                !
 --------------------------------------------------------------------------------
 ! R1    R(1,2)                  1.0954         estimate D2E/DX2                !
 ! R2    R(1,3)                  1.0955         estimate D2E/DX2                !
 ! R3    R(1,4)                  1.0991         estimate D2E/DX2                !
 ! R4    R(1,5)                  1.5115         estimate D2E/DX2                !
 ! R5    R(5,6)                  1.4713         estimate D2E/DX2                !
 ! R6    R(5,9)                  1.2134         estimate D2E/DX2                !
 ! R7    R(6,7)                  1.0872         estimate D2E/DX2                !
 ! R8    R(6,8)                  1.3507         estimate D2E/DX2                !
 ! R9    R(8,10)                 1.3631         estimate D2E/DX2                !
 ! R10   R(8,12)                 1.5368         estimate D2E/DX2                !
 ! R11   R(10,11)                0.9977         estimate D2E/DX2                !
 ! R12   R(12,13)                1.534          estimate D2E/DX2                !
 ! R13   R(12,17)                1.5392         estimate D2E/DX2                !
 ! R14   R(12,21)                1.5379         estimate D2E/DX2                !
 ! R15   R(13,14)                1.0969         estimate D2E/DX2                !
 ! R16   R(13,15)                1.0966         estimate D2E/DX2                !
 ! R17   R(13,16)                1.0963         estimate D2E/DX2                !
 ! R18   R(17,18)                1.0965         estimate D2E/DX2                !
 ! R19   R(17,19)                1.0981         estimate D2E/DX2                !
 ! R20   R(17,20)                1.0976         estimate D2E/DX2                !
 ! R21   R(21,22)                1.0959         estimate D2E/DX2                !
 ! R22   R(21,23)                1.0977         estimate D2E/DX2                !
 ! R23   R(21,24)                1.0953         estimate D2E/DX2                !
 ! A1    A(2,1,3)              107.8467         estimate D2E/DX2                !
 ! A2    A(2,1,4)              107.5265         estimate D2E/DX2                !
 ! A3    A(2,1,5)              111.6035         estimate D2E/DX2                !
 ! A4    A(3,1,4)              107.4793         estimate D2E/DX2                !
 ! A5    A(3,1,5)              111.5582         estimate D2E/DX2                !
 ! A6    A(4,1,5)              110.6335         estimate D2E/DX2                !
 ! A7    A(1,5,6)              114.7628         estimate D2E/DX2                !
 ! A8    A(1,5,9)              120.6501         estimate D2E/DX2                !
 ! A9    A(6,5,9)              124.587          estimate D2E/DX2                !
 ! A10   A(5,6,7)              115.8615         estimate D2E/DX2                !
 ! A11   A(5,6,8)              124.1856         estimate D2E/DX2                !
 ! A12   A(7,6,8)              119.9528         estimate D2E/DX2                !
 ! A13   A(6,8,10)             117.1945         estimate D2E/DX2                !
 ! A14   A(6,8,12)             126.3346         estimate D2E/DX2                !
 ! A15   A(10,8,12)            116.4362         estimate D2E/DX2                !
 ! A16   A(8,10,11)            112.8283         estimate D2E/DX2                !
 ! A17   A(8,12,13)            111.206          estimate D2E/DX2                !
 ! A18   A(8,12,17)            108.99           estimate D2E/DX2                !
 ! A19   A(8,12,21)            106.9257         estimate D2E/DX2                !
 ! A20   A(13,12,17)           109.1498         estimate D2E/DX2                !
 ! A21   A(13,12,21)           110.1393         estimate D2E/DX2                !
 ! A22   A(17,12,21)           110.4087         estimate D2E/DX2                !
 ! A23   A(12,13,14)           111.6602         estimate D2E/DX2                !
 ! A24   A(12,13,15)           111.8976         estimate D2E/DX2                !
 ! A25   A(12,13,16)           111.1398         estimate D2E/DX2                !
 ! A26   A(14,13,15)           107.5561         estimate D2E/DX2                !
 ! A27   A(14,13,16)           107.3284         estimate D2E/DX2                !
 ! A28   A(15,13,16)           107.0053         estimate D2E/DX2                !
 ! A29   A(12,17,18)           111.128          estimate D2E/DX2                !
 ! A30   A(12,17,19)           112.2917         estimate D2E/DX2                !
 ! A31   A(12,17,20)           111.4612         estimate D2E/DX2                !
 ! A32   A(18,17,19)           107.0121         estimate D2E/DX2                !
 ! A33   A(18,17,20)           107.11           estimate D2E/DX2                !
 ! A34   A(19,17,20)           107.5679         estimate D2E/DX2                !
 ! A35   A(12,21,22)           111.2567         estimate D2E/DX2                !
 ! A36   A(12,21,23)           111.3811         estimate D2E/DX2                !
 ! A37   A(12,21,24)           112.3406         estimate D2E/DX2                !
 ! A38   A(22,21,23)           107.1613         estimate D2E/DX2                !
 ! A39   A(22,21,24)           107.3715         estimate D2E/DX2                !
 ! A40   A(23,21,24)           107.0555         estimate D2E/DX2                !
 ! D1    D(2,1,5,6)            -59.6077         estimate D2E/DX2                !
 ! D2    D(2,1,5,9)            120.5337         estimate D2E/DX2                !
 ! D3    D(3,1,5,6)             61.1143         estimate D2E/DX2                !
 ! D4    D(3,1,5,9)           -118.7443         estimate D2E/DX2                !
 ! D5    D(4,1,5,6)           -179.2914         estimate D2E/DX2                !
 ! D6    D(4,1,5,9)              0.85           estimate D2E/DX2                !
 ! D7    D(1,5,6,7)             -2.385          estimate D2E/DX2                !
 ! D8    D(1,5,6,8)            177.6899         estimate D2E/DX2                !
 ! D9    D(9,5,6,7)            177.4673         estimate D2E/DX2                !
 ! D10   D(9,5,6,8)             -2.4578         estimate D2E/DX2                !
 ! D11   D(5,6,8,10)            -1.3748         estimate D2E/DX2                !
 ! D12   D(5,6,8,12)          -179.1452         estimate D2E/DX2                !
 ! D13   D(7,6,8,10)           178.703          estimate D2E/DX2                !
 ! D14   D(7,6,8,12)             0.9326         estimate D2E/DX2                !
 ! D15   D(6,8,10,11)          178.2922         estimate D2E/DX2                !
 ! D16   D(12,8,10,11)          -3.7135         estimate D2E/DX2                !
 ! D17   D(6,8,12,13)          -19.5677         estimate D2E/DX2                !
 ! D18   D(6,8,12,17)         -139.9416         estimate D2E/DX2                !
 ! D19   D(6,8,12,21)          100.7043         estimate D2E/DX2                !
 ! D20   D(10,8,12,13)         162.6469         estimate D2E/DX2                !
 ! D21   D(10,8,12,17)          42.2731         estimate D2E/DX2                !
 ! D22   D(10,8,12,21)         -77.0811         estimate D2E/DX2                !
 ! D23   D(8,12,13,14)         -56.823          estimate D2E/DX2                !
 ! D24   D(8,12,13,15)          63.8026         estimate D2E/DX2                !
 ! D25   D(8,12,13,16)        -176.6355         estimate D2E/DX2                !
 ! D26   D(17,12,13,14)         63.4564         estimate D2E/DX2                !
 ! D27   D(17,12,13,15)       -175.918          estimate D2E/DX2                !
 ! D28   D(17,12,13,16)        -56.3561         estimate D2E/DX2                !
 ! D29   D(21,12,13,14)       -175.1759         estimate D2E/DX2                !
 ! D30   D(21,12,13,15)        -54.5504         estimate D2E/DX2                !
 ! D31   D(21,12,13,16)         65.0116         estimate D2E/DX2                !
 ! D32   D(8,12,17,18)        -175.8582         estimate D2E/DX2                !
 ! D33   D(8,12,17,19)         -56.0291         estimate D2E/DX2                !
 ! D34   D(8,12,17,20)          64.7471         estimate D2E/DX2                !
 ! D35   D(13,12,17,18)         62.5104         estimate D2E/DX2                !
 ! D36   D(13,12,17,19)       -177.6605         estimate D2E/DX2                !
 ! D37   D(13,12,17,20)        -56.8843         estimate D2E/DX2                !
 ! D38   D(21,12,17,18)        -58.6935         estimate D2E/DX2                !
 ! D39   D(21,12,17,19)         61.1356         estimate D2E/DX2                !
 ! D40   D(21,12,17,20)       -178.0882         estimate D2E/DX2                !
 ! D41   D(8,12,21,22)         179.952          estimate D2E/DX2                !
 ! D42   D(8,12,21,23)         -60.5557         estimate D2E/DX2                !
 ! D43   D(8,12,21,24)          59.5391         estimate D2E/DX2                !
 ! D44   D(13,12,21,22)        -59.0958         estimate D2E/DX2                !
 ! D45   D(13,12,21,23)         60.3966         estimate D2E/DX2                !
 ! D46   D(13,12,21,24)       -179.5086         estimate D2E/DX2                !
 ! D47   D(17,12,21,22)         61.5182         estimate D2E/DX2                !
 ! D48   D(17,12,21,23)       -178.9894         estimate D2E/DX2                !
 ! D49   D(17,12,21,24)        -58.8946         estimate D2E/DX2                !
 --------------------------------------------------------------------------------
 Trust Radius=3.00D-01 FncErr=1.00D-07 GrdErr=1.00D-07
 Number of steps in this run= 122 maximum allowed number of steps= 144.
 GradGradGradGradGradGradGradGradGradGradGradGradGradGradGradGradGradGrad

                          Input orientation:                          
 ---------------------------------------------------------------------
 Center     Atomic      Atomic             Coordinates (Angstroms)
 Number     Number       Type             X           Y           Z
 ---------------------------------------------------------------------
      1          6           0       -3.353252    1.033699    0.024201
      2          1           0       -3.268770    1.660564    0.918572
      3          1           0       -3.309654    1.690499   -0.851490
      4          1           0       -4.349040    0.568632    0.038811
      5          6           0       -2.272781   -0.022344   -0.019285
      6          6           0       -0.898195    0.502236   -0.025002
      7          1           0       -0.803969    1.585221   -0.038320
      8          6           0        0.209259   -0.271005   -0.016305
      9          8           0       -2.560429   -1.200751   -0.049041
     10          8           0        0.026098   -1.621039    0.027788
     11          1           0        0.884419   -2.129078    0.004297
     12          6           0        1.664490    0.222799   -0.003203
     13          6           0        1.761073    1.677730   -0.479766
     14          1           0        1.332316    1.805006   -1.481349
     15          1           0        1.235864    2.364723    0.194636
     16          1           0        2.804807    2.009947   -0.526731
     17          6           0        2.504768   -0.670097   -0.933623
     18          1           0        3.565254   -0.394157   -0.894512
     19          1           0        2.438968   -1.732197   -0.662810
     20          1           0        2.184513   -0.574316   -1.979097
     21          6           0        2.163782    0.106282    1.446666
     22          1           0        3.203107    0.441981    1.537172
     23          1           0        1.563523    0.723705    2.127484
     24          1           0        2.118456   -0.922015    1.821255
 ---------------------------------------------------------------------
                    Distance matrix (angstroms):
                    1          2          3          4          5
     1  C    0.000000
     2  H    1.095444   0.000000
     3  H    1.095501   1.770787   0.000000
     4  H    1.099133   1.770107   1.769617   0.000000
     5  C    1.511468   2.168813   2.168295   2.159509   0.000000
     6  C    2.512405   2.802085   2.812506   3.452074   1.471293
     7  H    2.609010   2.645102   2.636435   3.688758   2.177622
     8  C    3.794124   4.086764   4.114338   4.635312   2.494466
     9  O    2.372066   3.102442   3.092667   2.517452   1.213371
    10  O    4.297401   4.734825   4.781909   4.892506   2.800515
    11  H    5.287855   5.696162   5.736880   5.887947   3.795629
    12  C    5.082917   5.220526   5.255078   6.023613   3.944928
    13  C    5.179294   5.220629   5.084350   6.231573   4.401622
    14  H    4.981581   5.191385   4.685907   6.009769   4.298089
    15  H    4.781282   4.616454   4.712822   5.868678   4.249052
    16  H    6.259255   6.252944   6.131407   7.319478   5.492687
    17  C    6.175496   6.495872   6.275880   7.032408   4.907196
    18  H    7.123800   7.362950   7.184150   8.027086   5.914974
    19  H    6.455384   6.825678   6.693065   7.201607   5.053544
    20  H    6.104568   6.567303   6.048699   6.932936   4.900307
    21  C    5.772450   5.675148   6.144085   6.679273   4.674254
    22  H    6.754633   6.614591   7.048444   7.700394   5.711699
    23  H    5.356732   5.068553   5.792826   6.272560   4.458973
    24  H    6.082254   6.042082   6.590385   6.872237   4.845613
                    6          7          8          9         10
     6  C    0.000000
     7  H    1.087158   0.000000
     8  C    1.350715   2.114873   0.000000
     9  O    2.379867   3.293465   2.921758   0.000000
    10  O    2.316333   3.312625   1.363116   2.621577   0.000000
    11  H    3.178425   4.080256   1.977044   3.568139   0.997682
    12  C    2.577967   2.819702   1.536786   4.458535   2.466785
    13  C    2.942839   2.604395   2.533869   5.210236   3.761599
    14  H    2.965356   2.587344   2.778027   5.122455   3.965033
    15  H    2.841004   2.196089   2.836454   5.213811   4.168653
    16  H    4.029534   3.666360   3.492870   6.270767   4.605732
    17  C    3.712157   4.103141   2.504019   5.169168   2.823545
    18  H    4.634862   4.872485   3.471184   6.236137   3.857655
    19  H    4.066466   4.681014   2.743111   5.064891   2.512215
    20  H    3.805330   4.166682   2.801103   5.160621   3.127614
    21  C    3.420276   3.633180   2.470383   5.124807   3.092984
    22  H    4.389157   4.454866   3.447429   6.199435   4.077705
    23  H    3.277545   3.322339   2.723841   5.044579   3.502888
    24  H    3.812786   4.276075   2.728640   5.046550   2.843083
                   11         12         13         14         15
    11  H    0.000000
    12  C    2.477880   0.000000
    13  C    3.936322   1.534036   0.000000
    14  H    4.229040   2.190579   1.096905   0.000000
    15  H    4.511540   2.193331   1.096641   1.769608   0.000000
    16  H    4.593627   2.183644   1.096336   1.766784   1.762901
    17  C    2.373574   1.539159   2.504269   2.792988   3.477530
    18  H    3.317331   2.188143   2.778453   3.188528   3.771435
    19  H    1.737576   2.203839   3.481473   3.795589   4.355161
    20  H    2.835733   2.193165   2.738432   2.575881   3.776639
    21  C    2.951954   1.537852   2.518485   3.485724   2.743933
    22  H    3.786339   2.188182   2.770302   3.803835   3.060945
    23  H    3.620425   2.191102   2.783333   3.774433   2.556600
    24  H    2.506229   2.201211   3.490142   4.354521   3.771936
                   16         17         18         19         20
    16  H    0.000000
    17  C    2.727310   0.000000
    18  H    2.548188   1.096496   0.000000
    19  H    3.762446   1.098056   1.764244   0.000000
    20  H    3.028621   1.097613   1.765001   1.771454   0.000000
    21  C    2.815874   2.526818   2.774108   2.811694   3.492778
    22  H    2.622375   2.798074   2.596798   3.186045   3.799282
    23  H    3.200009   3.492706   3.793284   3.818848   4.351378
    24  H    3.818443   2.793215   3.122058   2.632432   3.816796
                   21         22         23         24
    21  C    0.000000
    22  H    1.095939   0.000000
    23  H    1.097741   1.765240   0.000000
    24  H    1.095338   1.765689   1.763553   0.000000
 Stoichiometry    C8H14O2
 Framework group  C1[X(C8H14O2)]
 Deg. of freedom    66
 Full point group                 C1      NOp   1
 Largest Abelian subgroup         C1      NOp   1
 Largest concise Abelian subgroup C1      NOp   1
                         Standard orientation:                         
 ---------------------------------------------------------------------
 Center     Atomic      Atomic             Coordinates (Angstroms)
 Number     Number       Type             X           Y           Z
 ---------------------------------------------------------------------
      1          6           0       -3.353252    1.033699    0.024201
      2          1           0       -3.268770    1.660564    0.918572
      3          1           0       -3.309654    1.690499   -0.851490
      4          1           0       -4.349040    0.568632    0.038811
      5          6           0       -2.272781   -0.022344   -0.019285
      6          6           0       -0.898195    0.502236   -0.025002
      7          1           0       -0.803969    1.585221   -0.038320
      8          6           0        0.209259   -0.271005   -0.016305
      9          8           0       -2.560429   -1.200751   -0.049041
     10          8           0        0.026098   -1.621039    0.027788
     11          1           0        0.884419   -2.129078    0.004297
     12          6           0        1.664490    0.222799   -0.003203
     13          6           0        1.761073    1.677730   -0.479765
     14          1           0        1.332316    1.805006   -1.481349
     15          1           0        1.235864    2.364723    0.194636
     16          1           0        2.804807    2.009947   -0.526731
     17          6           0        2.504768   -0.670097   -0.933623
     18          1           0        3.565254   -0.394157   -0.894512
     19          1           0        2.438968   -1.732197   -0.662810
     20          1           0        2.184513   -0.574316   -1.979097
     21          6           0        2.163782    0.106282    1.446666
     22          1           0        3.203107    0.441981    1.537172
     23          1           0        1.563523    0.723705    2.127484
     24          1           0        2.118456   -0.922015    1.821255
 ---------------------------------------------------------------------
 Rotational constants (GHZ):      2.4034916      0.7587253      0.6646667
 Standard basis: 6-311G (5D, 7F)
 There are   172 symmetry adapted basis functions of A   symmetry.
 Integral buffers will be    262144 words long.
 Raffenetti 1 integral format.
 Two-electron integral symmetry is turned on.
   172 basis functions,   330 primitive gaussians,   172 cartesian basis functions
    39 alpha electrons       39 beta electrons
       nuclear repulsion energy       551.5885323553 Hartrees.
 NAtoms=   24 NActive=   24 NUniq=   24 SFac= 7.50D-01 NAtFMM=   80 NAOKFM=F Big=F
 One-electron integrals computed using PRISM.
 NBasis=   172 RedAO= T  NBF=   172
 NBsUse=   172 1.00D-06 NBFU=   172
 Harris functional with IExCor=  205 diagonalized for initial guess.
 ExpMin= 1.03D-01 ExpMax= 8.59D+03 ExpMxC= 1.30D+03 IAcc=1 IRadAn=         1 AccDes= 0.00D+00
 HarFok:  IExCor=  205 AccDes= 0.00D+00 IRadAn=         1 IDoV= 1
 ScaDFX=  1.000000  1.000000  1.000000  1.000000
 FoFCou: FMM=F IPFlag=           0 FMFlag=      100000 FMFlg1=           0
         NFxFlg=           0 DoJE=T BraDBF=F KetDBF=T FulRan=T
         Omega=  0.000000  0.000000  1.000000  0.000000  0.000000 ICntrl=     500 IOpCl=  0
         NMat0=    1 NMatS0=    1 NMatT0=    0 NMatD0=    1 NMtDS0=    0 NMtDT0=    0
         I1Cent=           4 NGrid=           0.
 Petite list used in FoFCou.
 Initial guess orbital symmetries:
       Occupied  (A) (A) (A) (A) (A) (A) (A) (A) (A) (A) (A) (A)
                 (A) (A) (A) (A) (A) (A) (A) (A) (A) (A) (A) (A)
                 (A) (A) (A) (A) (A) (A) (A) (A) (A) (A) (A) (A)
                 (A) (A) (A)
       Virtual   (A) (A) (A) (A) (A) (A) (A) (A) (A) (A) (A) (A)
                 (A) (A) (A) (A) (A) (A) (A) (A) (A) (A) (A) (A)
                 (A) (A) (A) (A) (A) (A) (A) (A) (A) (A) (A) (A)
                 (A) (A) (A) (A) (A) (A) (A) (A) (A) (A) (A) (A)
                 (A) (A) (A) (A) (A) (A) (A) (A) (A) (A) (A) (A)
                 (A) (A) (A) (A) (A) (A) (A) (A) (A) (A) (A) (A)
                 (A) (A) (A) (A) (A) (A) (A) (A) (A) (A) (A) (A)
                 (A) (A) (A) (A) (A) (A) (A) (A) (A) (A) (A) (A)
                 (A) (A) (A) (A) (A) (A) (A) (A) (A) (A) (A) (A)
                 (A) (A) (A) (A) (A) (A) (A) (A) (A) (A) (A) (A)
                 (A) (A) (A) (A) (A) (A) (A) (A) (A) (A) (A) (A)
                 (A)
 The electronic state of the initial guess is 1-A.
 Requested convergence on RMS density matrix=1.00D-08 within 128 cycles.
 Requested convergence on MAX density matrix=1.00D-06.
 Requested convergence on             energy=1.00D-06.
 No special actions if energy rises.
 Integral accuracy reduced to 1.0D-05 until final iterations.
 Initial convergence to 1.0D-05 achieved.  Increase integral accuracy.
 SCF Done:  E(RHF) =  -460.693402888     A.U. after   15 cycles
             Convg  =    0.6710D-08             -V/T =  2.0002

 **********************************************************************

            Population analysis using the SCF density.

 **********************************************************************

 Orbital symmetries:
       Occupied  (A) (A) (A) (A) (A) (A) (A) (A) (A) (A) (A) (A)
                 (A) (A) (A) (A) (A) (A) (A) (A) (A) (A) (A) (A)
                 (A) (A) (A) (A) (A) (A) (A) (A) (A) (A) (A) (A)
                 (A) (A) (A)
       Virtual   (A) (A) (A) (A) (A) (A) (A) (A) (A) (A) (A) (A)
                 (A) (A) (A) (A) (A) (A) (A) (A) (A) (A) (A) (A)
                 (A) (A) (A) (A) (A) (A) (A) (A) (A) (A) (A) (A)
                 (A) (A) (A) (A) (A) (A) (A) (A) (A) (A) (A) (A)
                 (A) (A) (A) (A) (A) (A) (A) (A) (A) (A) (A) (A)
                 (A) (A) (A) (A) (A) (A) (A) (A) (A) (A) (A) (A)
                 (A) (A) (A) (A) (A) (A) (A) (A) (A) (A) (A) (A)
                 (A) (A) (A) (A) (A) (A) (A) (A) (A) (A) (A) (A)
                 (A) (A) (A) (A) (A) (A) (A) (A) (A) (A) (A) (A)
                 (A) (A) (A) (A) (A) (A) (A) (A) (A) (A) (A) (A)
                 (A) (A) (A) (A) (A) (A) (A) (A) (A) (A) (A) (A)
                 (A)
 The electronic state is 1-A.
 Alpha  occ. eigenvalues --  -20.59345 -20.51838 -11.33754 -11.32446 -11.28689
 Alpha  occ. eigenvalues --  -11.25182 -11.24350 -11.24110 -11.22416 -11.22353
 Alpha  occ. eigenvalues --   -1.41644  -1.37671  -1.13851  -1.05280  -0.99107
 Alpha  occ. eigenvalues --   -0.96484  -0.95903  -0.86511  -0.78653  -0.74174
 Alpha  occ. eigenvalues --   -0.69263  -0.64656  -0.63424  -0.62425  -0.61990
 Alpha  occ. eigenvalues --   -0.59888  -0.58383  -0.57598  -0.56186  -0.55118
 Alpha  occ. eigenvalues --   -0.54687  -0.53585  -0.52920  -0.49509  -0.49049
 Alpha  occ. eigenvalues --   -0.48643  -0.47638  -0.38473  -0.34116
 Alpha virt. eigenvalues --    0.11682   0.12657   0.16188   0.16677   0.18757
 Alpha virt. eigenvalues --    0.18942   0.19660   0.19836   0.21894   0.23247
 Alpha virt. eigenvalues --    0.24328   0.24624   0.25477   0.26526   0.28056
 Alpha virt. eigenvalues --    0.29663   0.30605   0.34573   0.34954   0.37062
 Alpha virt. eigenvalues --    0.39023   0.40025   0.41409   0.43293   0.44461
 Alpha virt. eigenvalues --    0.48351   0.49671   0.51888   0.53354   0.54424
 Alpha virt. eigenvalues --    0.55900   0.57612   0.59540   0.60459   0.61143
 Alpha virt. eigenvalues --    0.62624   0.64235   0.64290   0.69351   0.71658
 Alpha virt. eigenvalues --    0.74284   0.75367   0.75868   0.76790   0.77864
 Alpha virt. eigenvalues --    0.78909   0.80252   0.80558   0.81511   0.81734
 Alpha virt. eigenvalues --    0.82491   0.83396   0.83759   0.84796   0.85368
 Alpha virt. eigenvalues --    0.86011   0.86820   0.88081   0.89070   0.89707
 Alpha virt. eigenvalues --    0.93238   0.94889   0.96578   1.04067   1.08038
 Alpha virt. eigenvalues --    1.11795   1.13957   1.17148   1.18991   1.21030
 Alpha virt. eigenvalues --    1.23778   1.25519   1.29462   1.32770   1.42677
 Alpha virt. eigenvalues --    1.45694   1.58167   1.93363   1.96577   2.46168
 Alpha virt. eigenvalues --    2.55467   2.57228   2.57563   2.58448   2.60149
 Alpha virt. eigenvalues --    2.61194   2.62137   2.62903   2.63271   2.65260
 Alpha virt. eigenvalues --    2.66106   2.69714   2.72373   2.93104   3.01048
 Alpha virt. eigenvalues --    3.12700   3.16108   3.16887   3.20652   3.24863
 Alpha virt. eigenvalues --    3.26618   3.28020   3.29983   3.32126   3.33462
 Alpha virt. eigenvalues --    3.34266   3.34561   3.37609   3.38712   3.40825
 Alpha virt. eigenvalues --    3.41720   3.49682   3.51612   3.54267   3.60235
 Alpha virt. eigenvalues --    3.67944   3.69855   5.37679   5.44487   5.45504
 Alpha virt. eigenvalues --    5.54572   5.59068   5.74618  24.38621  24.53526
 Alpha virt. eigenvalues --   24.56722  24.64347  24.65892  24.68461  24.76649
 Alpha virt. eigenvalues --   24.85175  51.57768  51.62774
          Condensed to atoms (all electrons):
              1          2          3          4          5          6
     1  C    5.696182   0.358478   0.357784   0.371802   0.174211  -0.209683
     2  H    0.358478   0.526777  -0.025288  -0.021428  -0.036411   0.006749
     3  H    0.357784  -0.025288   0.526316  -0.021204  -0.035049   0.005874
     4  H    0.371802  -0.021428  -0.021204   0.490018  -0.046505   0.012924
     5  C    0.174211  -0.036411  -0.035049  -0.046505   4.851935   0.014663
     6  C   -0.209683   0.006749   0.005874   0.012924   0.014663   6.168250
     7  H    0.008217   0.000694   0.000848  -0.000366  -0.029121   0.382120
     8  C    0.007151  -0.000607  -0.000429  -0.000673  -0.013219   0.342453
     9  O   -0.113649   0.002212   0.002151   0.010734   0.622142  -0.144790
    10  O   -0.000389   0.000014   0.000003   0.000011   0.003224  -0.123311
    11  H    0.000025  -0.000001  -0.000001  -0.000002  -0.000075   0.007443
    12  C   -0.000530   0.000009   0.000014   0.000004   0.008256  -0.092187
    13  C   -0.000031   0.000002  -0.000003   0.000001  -0.001297   0.004862
    14  H    0.000001  -0.000003  -0.000001  -0.000001  -0.000170  -0.001181
    15  H   -0.000026  -0.000002  -0.000006   0.000001   0.000069   0.000416
    16  H    0.000000   0.000000   0.000000   0.000000  -0.000014   0.000200
    17  C    0.000004   0.000000   0.000000   0.000000  -0.000156  -0.000231
    18  H    0.000000   0.000000   0.000000   0.000000   0.000007  -0.000242
    19  H    0.000002   0.000000   0.000000   0.000000  -0.000039   0.001078
    20  H   -0.000001   0.000000   0.000001   0.000000  -0.000030  -0.000154
    21  C    0.000000  -0.000002   0.000000  -0.000001  -0.000189  -0.014716
    22  H    0.000000   0.000000   0.000000   0.000000   0.000013  -0.000057
    23  H   -0.000002  -0.000001   0.000000   0.000000   0.000010   0.003488
    24  H    0.000003   0.000000   0.000000   0.000000  -0.000009   0.000247
              7          8          9         10         11         12
     1  C    0.008217   0.007151  -0.113649  -0.000389   0.000025  -0.000530
     2  H    0.000694  -0.000607   0.002212   0.000014  -0.000001   0.000009
     3  H    0.000848  -0.000429   0.002151   0.000003  -0.000001   0.000014
     4  H   -0.000366  -0.000673   0.010734   0.000011  -0.000002   0.000004
     5  C   -0.029121  -0.013219   0.622142   0.003224  -0.000075   0.008256
     6  C    0.382120   0.342453  -0.144790  -0.123311   0.007443  -0.092187
     7  H    0.486579  -0.036356   0.002854   0.003843  -0.000334  -0.009117
     8  C   -0.036356   5.192129   0.016638   0.243877  -0.034938   0.022539
     9  O    0.002854   0.016638   8.088803  -0.014480   0.000477   0.000066
    10  O    0.003843   0.243877  -0.014480   8.393771   0.263119  -0.104835
    11  H   -0.000334  -0.034938   0.000477   0.263119   0.351368  -0.001777
    12  C   -0.009117   0.022539   0.000066  -0.104835  -0.001777   6.315181
    13  C    0.004010  -0.065810  -0.000003   0.005847   0.000480   0.126332
    14  H   -0.000033   0.000935  -0.000005  -0.000122   0.000036  -0.046736
    15  H    0.000519  -0.005405  -0.000006  -0.000106  -0.000019  -0.038892
    16  H    0.000082   0.009731   0.000000  -0.000169   0.000004  -0.040942
    17  C    0.000408  -0.123382   0.000013   0.004815  -0.001448   0.205753
    18  H    0.000005   0.010347   0.000000   0.000381  -0.000134  -0.042880
    19  H    0.000031  -0.001918   0.000013  -0.000981   0.008567  -0.049675
    20  H   -0.000023  -0.002698  -0.000005   0.000245  -0.000116  -0.037401
    21  C   -0.000157  -0.145822   0.000006   0.004525   0.000361   0.225925
    22  H   -0.000005   0.010398  -0.000001  -0.000245  -0.000056  -0.041149
    23  H    0.000115  -0.002320  -0.000005  -0.000676  -0.000116  -0.037392
    24  H   -0.000035  -0.009132   0.000015   0.006912   0.002192  -0.040208
             13         14         15         16         17         18
     1  C   -0.000031   0.000001  -0.000026   0.000000   0.000004   0.000000
     2  H    0.000002  -0.000003  -0.000002   0.000000   0.000000   0.000000
     3  H   -0.000003  -0.000001  -0.000006   0.000000   0.000000   0.000000
     4  H    0.000001  -0.000001   0.000001   0.000000   0.000000   0.000000
     5  C   -0.001297  -0.000170   0.000069  -0.000014  -0.000156   0.000007
     6  C    0.004862  -0.001181   0.000416   0.000200  -0.000231  -0.000242
     7  H    0.004010  -0.000033   0.000519   0.000082   0.000408   0.000005
     8  C   -0.065810   0.000935  -0.005405   0.009731  -0.123382   0.010347
     9  O   -0.000003  -0.000005  -0.000006   0.000000   0.000013   0.000000
    10  O    0.005847  -0.000122  -0.000106  -0.000169   0.004815   0.000381
    11  H    0.000480   0.000036  -0.000019   0.000004  -0.001448  -0.000134
    12  C    0.126332  -0.046736  -0.038892  -0.040942   0.205753  -0.042880
    13  C    5.424600   0.391434   0.385562   0.381232  -0.100996  -0.005087
    14  H    0.391434   0.517980  -0.027902  -0.026701  -0.004960  -0.000176
    15  H    0.385562  -0.027902   0.528247  -0.027483   0.008238  -0.000123
    16  H    0.381232  -0.026701  -0.027483   0.536753  -0.006115   0.002342
    17  C   -0.100996  -0.004960   0.008238  -0.006115   5.447477   0.392250
    18  H   -0.005087  -0.000176  -0.000123   0.002342   0.392250   0.505089
    19  H    0.009261  -0.000220  -0.000263  -0.000183   0.374710  -0.024980
    20  H   -0.003336   0.002830  -0.000146  -0.000123   0.381865  -0.025257
    21  C   -0.088886   0.008431  -0.005107  -0.003841  -0.123619  -0.003706
    22  H   -0.007053  -0.000188  -0.000162   0.002165  -0.002178   0.002359
    23  H   -0.004716  -0.000280   0.002845  -0.000292   0.008394  -0.000002
    24  H    0.008740  -0.000220  -0.000072  -0.000176  -0.005367  -0.000723
             19         20         21         22         23         24
     1  C    0.000002  -0.000001   0.000000   0.000000  -0.000002   0.000003
     2  H    0.000000   0.000000  -0.000002   0.000000  -0.000001   0.000000
     3  H    0.000000   0.000001   0.000000   0.000000   0.000000   0.000000
     4  H    0.000000   0.000000  -0.000001   0.000000   0.000000   0.000000
     5  C   -0.000039  -0.000030  -0.000189   0.000013   0.000010  -0.000009
     6  C    0.001078  -0.000154  -0.014716  -0.000057   0.003488   0.000247
     7  H    0.000031  -0.000023  -0.000157  -0.000005   0.000115  -0.000035
     8  C   -0.001918  -0.002698  -0.145822   0.010398  -0.002320  -0.009132
     9  O    0.000013  -0.000005   0.000006  -0.000001  -0.000005   0.000015
    10  O   -0.000981   0.000245   0.004525  -0.000245  -0.000676   0.006912
    11  H    0.008567  -0.000116   0.000361  -0.000056  -0.000116   0.002192
    12  C   -0.049675  -0.037401   0.225925  -0.041149  -0.037392  -0.040208
    13  C    0.009261  -0.003336  -0.088886  -0.007053  -0.004716   0.008740
    14  H   -0.000220   0.002830   0.008431  -0.000188  -0.000280  -0.000220
    15  H   -0.000263  -0.000146  -0.005107  -0.000162   0.002845  -0.000072
    16  H   -0.000183  -0.000123  -0.003841   0.002165  -0.000292  -0.000176
    17  C    0.374710   0.381865  -0.123619  -0.002178   0.008394  -0.005367
    18  H   -0.024980  -0.025257  -0.003706   0.002359  -0.000002  -0.000723
    19  H    0.576632  -0.027563  -0.003766  -0.000713  -0.000132   0.002660
    20  H   -0.027563   0.506302   0.007584  -0.000090  -0.000286  -0.000142
    21  C   -0.003766   0.007584   5.433413   0.385541   0.380728   0.383033
    22  H   -0.000713  -0.000090   0.385541   0.525748  -0.025063  -0.028284
    23  H   -0.000132  -0.000286   0.380728  -0.025063   0.511664  -0.026393
    24  H    0.002660  -0.000142   0.383033  -0.028284  -0.026393   0.537553
 Mulliken atomic charges:
              1
     1  C   -0.649549
     2  H    0.188809
     3  H    0.188990
     4  H    0.204685
     5  C    0.487754
     6  C   -0.364213
     7  H    0.185221
     8  C    0.586512
     9  O   -0.473180
    10  O   -0.685273
    11  H    0.404946
    12  C   -0.320359
    13  C   -0.465145
    14  H    0.187250
    15  H    0.179822
    16  H    0.173526
    17  C   -0.455472
    18  H    0.190530
    19  H    0.137480
    20  H    0.198545
    21  C   -0.439738
    22  H    0.179019
    23  H    0.190432
    24  H    0.169405
 Sum of Mulliken atomic charges =   0.00000
 Mulliken charges with hydrogens summed into heavy atoms:
              1
     1  C   -0.067065
     5  C    0.487754
     6  C   -0.178992
     8  C    0.586512
     9  O   -0.473180
    10  O   -0.280327
    12  C   -0.320359
    13  C    0.075454
    17  C    0.071083
    21  C    0.099118
 Sum of Mulliken charges with hydrogens summed into heavy atoms =   0.00000
 Electronic spatial extent (au):  <R**2>=           1860.1296
 Charge=              0.0000 electrons
 Dipole moment (field-independent basis, Debye):
    X=              4.9293    Y=              3.1906    Z=              0.0027  Tot=              5.8718
 Quadrupole moment (field-independent basis, Debye-Ang):
   XX=            -62.8909   YY=            -64.5795   ZZ=            -63.1353
   XY=            -12.0499   XZ=             -0.4570   YZ=             -0.0391
 Traceless Quadrupole moment (field-independent basis, Debye-Ang):
   XX=              0.6443   YY=             -1.0443   ZZ=              0.3999
   XY=            -12.0499   XZ=             -0.4570   YZ=             -0.0391
 Octapole moment (field-independent basis, Debye-Ang**2):
  XXX=             10.7586  YYY=            -10.2594  ZZZ=             -0.8471  XYY=             16.3454
  XXY=             18.1394  XXZ=              0.0487  XZZ=             -1.7546  YZZ=             -2.9725
  YYZ=              0.6103  XYZ=              0.2548
 Hexadecapole moment (field-independent basis, Debye-Ang**3):
 XXXX=          -1747.9682 YYYY=           -464.6905 ZZZZ=           -250.0502 XXXY=            -46.3999
 XXXZ=             -4.0625 YYYX=            -28.4338 YYYZ=             -0.2638 ZZZX=             -1.1950
 ZZZY=              0.4691 XXYY=           -396.2778 XXZZ=           -335.9475 YYZZ=           -121.9328
 XXYZ=             -1.6455 YYXZ=              0.6043 ZZXY=              0.8611
 N-N= 5.515885323553D+02 E-N=-2.181347470143D+03  KE= 4.606099325201D+02
 Calling FoFJK, ICntrl=      2127 FMM=F ISym2X=0 I1Cent= 0 IOpClX= 0 NMat=1 NMatS=1 NMatT=0.
 ***** Axes restored to original set *****
 -------------------------------------------------------------------
 Center     Atomic                   Forces (Hartrees/Bohr)
 Number     Number              X              Y              Z
 -------------------------------------------------------------------
      1        6          -0.017259951    0.003516501    0.000291160
      2        1           0.002161574   -0.004484813   -0.007198824
      3        1           0.002438421   -0.004639883    0.006888441
      4        1           0.014147899    0.002805660   -0.000329422
      5        6           0.001694780    0.016158102    0.001402586
      6        6           0.014229999    0.000656071   -0.001133989
      7        1           0.000768168   -0.015008076   -0.000480471
      8        6          -0.018359968    0.012145571   -0.002615904
      9        8          -0.008178399   -0.008851583   -0.000457336
     10        8           0.054132034   -0.023992363    0.000788390
     11        1          -0.047362170    0.022227518    0.002481259
     12        6          -0.008588597   -0.000613166   -0.000506999
     13        6          -0.000458980    0.013941445   -0.003688405
     14        1           0.003901093   -0.002556939    0.009516821
     15        1           0.005552183   -0.007278157   -0.005909670
     16        1          -0.008214426   -0.005496237    0.001787618
     17        6           0.008762817   -0.005671870   -0.010604128
     18        1          -0.010445362   -0.001813694    0.001984739
     19        1           0.006297334    0.010673550   -0.004137475
     20        1           0.001212078   -0.001424039    0.010667151
     21        6           0.006711851    0.001265989    0.016927518
     22        1          -0.007947338   -0.003143271   -0.003065564
     23        1           0.004745845   -0.005985769   -0.008408309
     24        1           0.000059114    0.007569451   -0.004199186
 -------------------------------------------------------------------
 Cartesian Forces:  Max     0.054132034 RMS     0.011851450

 GradGradGradGradGradGradGradGradGradGradGradGradGradGradGradGradGradGrad
 Berny optimization.
 Internal  Forces:  Max     0.052123472 RMS     0.007332449
 Search for a local minimum.
 Step number   1 out of a maximum of  122
 All quantities printed in internal units (Hartrees-Bohrs-Radians)
 Mixed Optimization -- RFO/linear search
 Second derivative matrix not updated -- first step.
     Eigenvalues ---    0.00248   0.00265   0.00279   0.00316   0.00614
     Eigenvalues ---    0.00838   0.01146   0.01402   0.01973   0.02180
     Eigenvalues ---    0.02741   0.04612   0.05156   0.05259   0.05273
     Eigenvalues ---    0.05338   0.05394   0.05397   0.05433   0.05553
     Eigenvalues ---    0.07027   0.07165   0.14763   0.15329   0.16000
     Eigenvalues ---    0.16000   0.16000   0.16000   0.16000   0.16000
     Eigenvalues ---    0.16000   0.16000   0.16000   0.16000   0.16000
     Eigenvalues ---    0.16000   0.16000   0.16000   0.22000   0.24989
     Eigenvalues ---    0.24992   0.25000   0.25000   0.28594   0.28710
     Eigenvalues ---    0.28806   0.29054   0.31203   0.33778   0.33898
     Eigenvalues ---    0.33933   0.33947   0.34027   0.34056   0.34073
     Eigenvalues ---    0.34091   0.34135   0.34185   0.34191   0.34203
     Eigenvalues ---    0.35143   0.35586   0.48098   0.52323   0.54870
     Eigenvalues ---    0.983811000.000001000.000001000.000001000.00000
     Eigenvalues --- 1000.000001000.000001000.000001000.000001000.00000
     Eigenvalues --- 1000.000001000.000001000.000001000.000001000.00000
     Eigenvalues --- 1000.000001000.000001000.000001000.000001000.00000
     Eigenvalues --- 1000.000001000.000001000.000001000.000001000.00000
     Eigenvalues --- 1000.000001000.000001000.000001000.000001000.00000
     Eigenvalues --- 1000.000001000.000001000.000001000.000001000.00000
     Eigenvalues --- 1000.000001000.000001000.000001000.000001000.00000
     Eigenvalues --- 1000.000001000.000001000.000001000.000001000.00000
     Eigenvalues --- 1000.000001000.00000
 RFO step:  Lambda=-1.91821864D-02 EMin= 2.47951421D-03
 Linear search not attempted -- first point.
 Maximum step size (   0.300) exceeded in Quadratic search.
    -- Step size scaled by   0.779
 Iteration  1 RMS(Cart)=  0.10673240 RMS(Int)=  0.00351392
 Iteration  2 RMS(Cart)=  0.00603247 RMS(Int)=  0.00013261
 Iteration  3 RMS(Cart)=  0.00001387 RMS(Int)=  0.00013247
 Iteration  4 RMS(Cart)=  0.00000000 RMS(Int)=  0.00013247
 Variable       Old X    -DE/DX   Delta X   Delta X   Delta X     New X
                                 (Linear)    (Quad)   (Total)
    R1        2.07009  -0.00828   0.00000  -0.01787  -0.01787   2.05222
    R2        2.07020  -0.00819   0.00000  -0.01768  -0.01768   2.05251
    R3        2.07706  -0.01401   0.00000  -0.03059  -0.03059   2.04647
    R4        2.85626  -0.00303   0.00000  -0.00713  -0.00713   2.84913
    R5        2.78034   0.00306   0.00000   0.00637   0.00637   2.78671
    R6        2.29294   0.01055   0.00000   0.00820   0.00820   2.30113
    R7        2.05443  -0.01488   0.00000  -0.03129  -0.03129   2.02314
    R8        2.55248  -0.01383   0.00000  -0.01898  -0.01898   2.53350
    R9        2.57592   0.00094   0.00000   0.00136   0.00136   2.57727
   R10        2.90411   0.00134   0.00000   0.00339   0.00339   2.90749
   R11        1.88535  -0.05212   0.00000  -0.08122  -0.08122   1.80412
   R12        2.89891  -0.00180   0.00000  -0.00453  -0.00453   2.89438
   R13        2.90859   0.00342   0.00000   0.00874   0.00874   2.91733
   R14        2.90612   0.00236   0.00000   0.00602   0.00602   2.91214
   R15        2.07285  -0.01051   0.00000  -0.02279  -0.02279   2.05006
   R16        2.07235  -0.01085   0.00000  -0.02351  -0.02351   2.04884
   R17        2.07178  -0.00956   0.00000  -0.02070  -0.02070   2.05108
   R18        2.07208  -0.01049   0.00000  -0.02271  -0.02271   2.04936
   R19        2.07502  -0.01172   0.00000  -0.02551  -0.02551   2.04952
   R20        2.07419  -0.01064   0.00000  -0.02312  -0.02312   2.05107
   R21        2.07102  -0.00875   0.00000  -0.01892  -0.01892   2.05210
   R22        2.07443  -0.01118   0.00000  -0.02430  -0.02430   2.05013
   R23        2.06989  -0.00854   0.00000  -0.01844  -0.01844   2.05145
    A1        1.88228   0.00067   0.00000  -0.00155  -0.00166   1.88062
    A2        1.87669   0.00352   0.00000   0.01762   0.01759   1.89428
    A3        1.94785  -0.00189   0.00000  -0.00944  -0.00951   1.93834
    A4        1.87587   0.00344   0.00000   0.01723   0.01721   1.89307
    A5        1.94706  -0.00180   0.00000  -0.00906  -0.00913   1.93793
    A6        1.93092  -0.00347   0.00000  -0.01264  -0.01267   1.91825
    A7        2.00299  -0.00231   0.00000  -0.00669  -0.00670   1.99629
    A8        2.10574  -0.00554   0.00000  -0.01605  -0.01606   2.08968
    A9        2.17445   0.00785   0.00000   0.02273   0.02272   2.19717
   A10        2.02216  -0.00752   0.00000  -0.02220  -0.02220   1.99996
   A11        2.16745   0.01929   0.00000   0.06287   0.06287   2.23031
   A12        2.09357  -0.01177   0.00000  -0.04066  -0.04066   2.05291
   A13        2.04543   0.01119   0.00000   0.03214   0.03202   2.07745
   A14        2.20495  -0.01379   0.00000  -0.04019  -0.04028   2.16468
   A15        2.03220   0.00256   0.00000   0.00720   0.00710   2.03930
   A16        1.96923   0.00952   0.00000   0.04140   0.04140   2.01062
   A17        1.94091  -0.00189   0.00000  -0.00922  -0.00890   1.93202
   A18        1.90223   0.00540   0.00000   0.04112   0.04110   1.94334
   A19        1.86621   0.00025   0.00000   0.01265   0.01249   1.87869
   A20        1.90502  -0.00317   0.00000  -0.02503  -0.02514   1.87989
   A21        1.92229   0.00103   0.00000  -0.01042  -0.01069   1.91160
   A22        1.92699  -0.00150   0.00000  -0.00781  -0.00853   1.91846
   A23        1.94884  -0.00087   0.00000  -0.00246  -0.00248   1.94635
   A24        1.95298   0.00004   0.00000   0.00083   0.00080   1.95378
   A25        1.93976  -0.00411   0.00000  -0.01983  -0.01988   1.91987
   A26        1.87721   0.00119   0.00000   0.00877   0.00877   1.88598
   A27        1.87323   0.00242   0.00000   0.00931   0.00925   1.88249
   A28        1.86760   0.00168   0.00000   0.00484   0.00479   1.87239
   A29        1.93955  -0.00450   0.00000  -0.02389  -0.02382   1.91573
   A30        1.95986   0.00728   0.00000   0.03304   0.03306   1.99292
   A31        1.94537  -0.00172   0.00000  -0.00450  -0.00467   1.94070
   A32        1.86771  -0.00252   0.00000  -0.01638  -0.01614   1.85157
   A33        1.86942   0.00277   0.00000   0.00946   0.00934   1.87876
   A34        1.87741  -0.00144   0.00000   0.00159   0.00140   1.87881
   A35        1.94180  -0.00238   0.00000  -0.01056  -0.01060   1.93119
   A36        1.94397  -0.00187   0.00000  -0.00719  -0.00720   1.93676
   A37        1.96071  -0.00110   0.00000  -0.00553  -0.00556   1.95515
   A38        1.87032   0.00255   0.00000   0.01253   0.01251   1.88283
   A39        1.87399   0.00154   0.00000   0.00492   0.00487   1.87886
   A40        1.86847   0.00168   0.00000   0.00768   0.00766   1.87613
    D1       -1.04035   0.00072   0.00000   0.00343   0.00344  -1.03691
    D2        2.10371   0.00096   0.00000   0.01041   0.01034   2.11405
    D3        1.06665  -0.00098   0.00000  -0.01141  -0.01134   1.05531
    D4       -2.07248  -0.00075   0.00000  -0.00443  -0.00444  -2.07692
    D5       -3.12922  -0.00014   0.00000  -0.00409  -0.00405  -3.13328
    D6        0.01483   0.00009   0.00000   0.00289   0.00285   0.01768
    D7       -0.04163   0.00013   0.00000   0.00337   0.00343  -0.03820
    D8        3.10127   0.00011   0.00000   0.00306   0.00312   3.10439
    D9        3.09739  -0.00015   0.00000  -0.00399  -0.00404   3.09335
   D10       -0.04290  -0.00016   0.00000  -0.00430  -0.00435  -0.04725
   D11       -0.02399   0.00001   0.00000  -0.00348  -0.00352  -0.02751
   D12       -3.12667   0.00118   0.00000   0.02343   0.02347  -3.10321
   D13        3.11896  -0.00001   0.00000  -0.00382  -0.00385   3.11510
   D14        0.01628   0.00116   0.00000   0.02310   0.02313   0.03941
   D15        3.11179   0.00162   0.00000   0.02968   0.03009  -3.14131
   D16       -0.06481   0.00016   0.00000   0.00430   0.00389  -0.06092
   D17       -0.34152   0.00102   0.00000   0.06337   0.06356  -0.27796
   D18       -2.44244   0.00262   0.00000   0.07345   0.07382  -2.36862
   D19        1.75762   0.00133   0.00000   0.05325   0.05315   1.81077
   D20        2.83872   0.00202   0.00000   0.08960   0.08949   2.92821
   D21        0.73780   0.00362   0.00000   0.09968   0.09975   0.83755
   D22       -1.34532   0.00233   0.00000   0.07949   0.07907  -1.26625
   D23       -0.99175  -0.00162   0.00000  -0.01230  -0.01232  -1.00407
   D24        1.11356  -0.00068   0.00000  -0.00218  -0.00223   1.11134
   D25       -3.08287  -0.00132   0.00000  -0.00899  -0.00903  -3.09190
   D26        1.10752   0.00184   0.00000   0.01671   0.01673   1.12425
   D27       -3.07035   0.00278   0.00000   0.02683   0.02682  -3.04353
   D28       -0.98360   0.00214   0.00000   0.02001   0.02002  -0.96358
   D29       -3.05740  -0.00140   0.00000  -0.01557  -0.01552  -3.07292
   D30       -0.95208  -0.00046   0.00000  -0.00545  -0.00543  -0.95751
   D31        1.13467  -0.00109   0.00000  -0.01227  -0.01223   1.12243
   D32       -3.06930  -0.00181   0.00000  -0.04065  -0.04066  -3.10997
   D33       -0.97789  -0.00319   0.00000  -0.05567  -0.05589  -1.03379
   D34        1.13005  -0.00116   0.00000  -0.03364  -0.03373   1.09632
   D35        1.09101  -0.00088   0.00000  -0.03936  -0.03909   1.05193
   D36       -3.10076  -0.00227   0.00000  -0.05438  -0.05431   3.12811
   D37       -0.99282  -0.00023   0.00000  -0.03235  -0.03215  -1.02497
   D38       -1.02439   0.00083   0.00000  -0.00536  -0.00533  -1.02972
   D39        1.06702  -0.00055   0.00000  -0.02038  -0.02056   1.04646
   D40       -3.10823   0.00148   0.00000   0.00166   0.00160  -3.10662
   D41        3.14075   0.00209   0.00000   0.01492   0.01486  -3.12757
   D42       -1.05690   0.00247   0.00000   0.01890   0.01883  -1.03807
   D43        1.03915   0.00256   0.00000   0.01988   0.01980   1.05896
   D44       -1.03142   0.00055   0.00000   0.00548   0.00549  -1.02592
   D45        1.05412   0.00092   0.00000   0.00946   0.00946   1.06358
   D46       -3.13302   0.00101   0.00000   0.01044   0.01043  -3.12258
   D47        1.07370  -0.00370   0.00000  -0.03755  -0.03748   1.03622
   D48       -3.12395  -0.00333   0.00000  -0.03358  -0.03351   3.12572
   D49       -1.02791  -0.00324   0.00000  -0.03259  -0.03253  -1.06044
         Item               Value     Threshold  Converged?
 Maximum Force            0.052123     0.000450     NO 
 RMS     Force            0.007332     0.000300     NO 
 Maximum Displacement     0.327800     0.001800     NO 
 RMS     Displacement     0.106822     0.001200     NO 
 Predicted change in Energy=-9.986229D-03
 GradGradGradGradGradGradGradGradGradGradGradGradGradGradGradGradGradGrad

                          Input orientation:                          
 ---------------------------------------------------------------------
 Center     Atomic      Atomic             Coordinates (Angstroms)
 Number     Number       Type             X           Y           Z
 ---------------------------------------------------------------------
      1          6           0       -3.303734    1.110539   -0.014023
      2          1           0       -3.157396    1.770599    0.835848
      3          1           0       -3.204769    1.706201   -0.916852
      4          1           0       -4.310880    0.714625    0.027007
      5          6           0       -2.306620   -0.020256    0.000266
      6          6           0       -0.896944    0.410666   -0.041543
      7          1           0       -0.756761    1.469578   -0.113949
      8          6           0        0.199234   -0.360132   -0.000831
      9          8           0       -2.700270   -1.172101    0.033541
     10          8           0        0.054440   -1.710608    0.122829
     11          1           0        0.869970   -2.206397    0.146462
     12          6           0        1.637150    0.187244   -0.001571
     13          6           0        1.658168    1.652945   -0.445642
     14          1           0        1.218589    1.776929   -1.429657
     15          1           0        1.121551    2.293363    0.245295
     16          1           0        2.681236    2.012652   -0.490384
     17          6           0        2.541006   -0.608993   -0.967136
     18          1           0        3.553582   -0.223118   -0.923766
     19          1           0        2.612433   -1.666756   -0.738440
     20          1           0        2.197314   -0.516502   -1.992499
     21          6           0        2.179592    0.076941    1.436616
     22          1           0        3.192135    0.465021    1.494812
     23          1           0        1.565255    0.644211    2.127823
     24          1           0        2.200322   -0.950622    1.786147
 ---------------------------------------------------------------------
                    Distance matrix (angstroms):
                    1          2          3          4          5
     1  C    0.000000
     2  H    1.085990   0.000000
     3  H    1.086143   1.754522   0.000000
     4  H    1.082947   1.760633   1.759993   0.000000
     5  C    1.507692   2.151552   2.151379   2.134905   0.000000
     6  C    2.506635   2.780085   2.787586   3.428126   1.474663
     7  H    2.574095   2.599188   2.587159   3.636150   2.152839
     8  C    3.799188   4.062882   4.086082   4.636486   2.528798
     9  O    2.361541   3.084176   3.072847   2.480694   1.217708
    10  O    4.388044   4.789894   4.835077   4.994692   2.906358
    11  H    5.333632   5.701879   5.748267   5.948769   3.858927
    12  C    5.026426   5.118198   5.156467   5.971432   3.949226
    13  C    5.010087   4.984548   4.886004   6.060807   4.326429
    14  H    4.785342   4.927656   4.453546   5.815960   4.207334
    15  H    4.587970   4.351025   4.518007   5.661393   4.143095
    16  H    6.071292   5.992253   5.909386   7.130376   5.408527
    17  C    6.166539   6.433117   6.194884   7.049016   4.978149
    18  H    7.044789   7.218613   7.028345   7.977036   5.936073
    19  H    6.575650   6.898167   6.726701   7.361327   5.239631
    20  H    6.068209   6.473275   5.939691   6.924642   4.950030
    21  C    5.765374   5.631415   6.097921   6.672320   4.711544
    22  H    6.699969   6.515774   6.948168   7.649312   5.718870
    23  H    5.339665   5.024080   5.757691   6.240781   4.467598
    24  H    6.146838   6.083851   6.601509   6.947184   4.936343
                    6          7          8          9         10
     6  C    0.000000
     7  H    1.070602   0.000000
     8  C    1.340669   2.067501   0.000000
     9  O    2.400578   3.282902   3.011245   0.000000
    10  O    2.330655   3.290546   1.363834   2.808271   0.000000
    11  H    3.163282   4.028258   1.969842   3.718754   0.954702
    12  C    2.544238   2.718054   1.538579   4.545576   2.474326
    13  C    2.869695   2.444489   2.525634   5.215984   3.769429
    14  H    2.875590   2.393232   2.765441   5.118123   3.991037
    15  H    2.775094   2.082242   2.819980   5.163390   4.145541
    16  H    3.946035   3.500922   3.468444   6.275170   4.597691
    17  C    3.703502   3.990445   2.545501   5.365577   2.929948
    18  H    4.581177   4.701072   3.481701   6.397474   3.943601
    19  H    4.137278   4.645217   2.841630   5.391238   2.699451
    20  H    3.773632   4.024925   2.825513   5.340504   3.239200
    21  C    3.429489   3.600813   2.485780   5.228936   3.072074
    22  H    4.368513   4.380756   3.446053   6.287759   4.057195
    23  H    3.289851   3.331445   2.721376   5.087210   3.442054
    24  H    3.845336   4.267559   2.747056   5.209268   2.819400
                   11         12         13         14         15
    11  H    0.000000
    12  C    2.517935   0.000000
    13  C    3.983261   1.531640   0.000000
    14  H    4.297974   2.177550   1.084844   0.000000
    15  H    4.507871   2.182320   1.084199   1.755444   0.000000
    16  H    4.635368   2.158974   1.085384   1.754176   1.747180
    17  C    2.565963   1.543783   2.483490   2.766828   3.450871
    18  H    3.504363   2.166000   2.709393   3.115815   3.689737
    19  H    2.027422   2.220691   3.466521   3.778829   4.344307
    20  H    3.031954   2.184682   2.718445   2.556270   3.749710
    21  C    2.931423   1.541036   2.509695   3.468286   2.729693
    22  H    3.787739   2.175845   2.744008   3.764107   3.031740
    23  H    3.540505   2.179061   2.765665   3.749519   2.541750
    24  H    2.456699   2.192678   3.471797   4.329518   3.749855
                   16         17         18         19         20
    16  H    0.000000
    17  C    2.668329   0.000000
    18  H    2.438745   1.084477   0.000000
    19  H    3.688402   1.084558   1.733263   0.000000
    20  H    2.981132   1.085380   1.751493   1.751591   0.000000
    21  C    2.777040   2.525698   2.747597   2.821117   3.480132
    22  H    2.568499   2.763813   2.540414   3.141328   3.756913
    23  H    3.158014   3.478704   3.744049   3.827873   4.327101
    24  H    3.767607   2.795236   3.115158   2.656355   3.803503
                   21         22         23         24
    21  C    0.000000
    22  H    1.085926   0.000000
    23  H    1.084883   1.754864   0.000000
    24  H    1.085582   1.752887   1.750298   0.000000
 Stoichiometry    C8H14O2
 Framework group  C1[X(C8H14O2)]
 Deg. of freedom    66
 Full point group                 C1      NOp   1
 Largest Abelian subgroup         C1      NOp   1
 Largest concise Abelian subgroup C1      NOp   1
                         Standard orientation:                         
 ---------------------------------------------------------------------
 Center     Atomic      Atomic             Coordinates (Angstroms)
 Number     Number       Type             X           Y           Z
 ---------------------------------------------------------------------
      1          6           0       -3.300728    1.089925    0.028306
      2          1           0       -3.162611    1.702499    0.914338
      3          1           0       -3.206651    1.736544   -0.839301
      4          1           0       -4.303725    0.681884    0.044835
      5          6           0       -2.291827   -0.029454   -0.019071
      6          6           0       -0.886688    0.417764   -0.033558
      7          1           0       -0.757513    1.480473   -0.045865
      8          6           0        0.217454   -0.342672   -0.034052
      9          8           0       -2.673418   -1.185371   -0.051603
     10          8           0        0.086651   -1.699404    0.012982
     11          1           0        0.907302   -2.187236    0.010347
     12          6           0        1.649547    0.218786   -0.000912
     13          6           0        1.655858    1.707334   -0.361614
     14          1           0        1.216493    1.882032   -1.337998
     15          1           0        1.111505    2.302163    0.363193
     16          1           0        2.675162    2.079603   -0.383856
     17          6           0        2.563170   -0.512304   -1.007921
     18          1           0        3.571575   -0.118988   -0.940739
     19          1           0        2.645345   -1.580480   -0.839063
     20          1           0        2.220080   -0.365719   -2.027161
     21          6           0        2.190938    0.033206    1.429908
     22          1           0        3.199264    0.427887    1.512017
     23          1           0        1.569637    0.554184    2.150699
     24          1           0        2.221919   -1.012160    1.721005
 ---------------------------------------------------------------------
 Rotational constants (GHZ):      2.3714147      0.7535738      0.6577701
 Standard basis: 6-311G (5D, 7F)
 There are   172 symmetry adapted basis functions of A   symmetry.
 Integral buffers will be    262144 words long.
 Raffenetti 1 integral format.
 Two-electron integral symmetry is turned on.
   172 basis functions,   330 primitive gaussians,   172 cartesian basis functions
    39 alpha electrons       39 beta electrons
       nuclear repulsion energy       550.4648261779 Hartrees.
 NAtoms=   24 NActive=   24 NUniq=   24 SFac= 7.50D-01 NAtFMM=   80 NAOKFM=F Big=F
 One-electron integrals computed using PRISM.
 NBasis=   172 RedAO= T  NBF=   172
 NBsUse=   172 1.00D-06 NBFU=   172
 Initial guess read from the read-write file.
 B after Tr=     0.000000    0.000000    0.000000
         Rot=    1.000000    0.000000    0.000000    0.000000 Ang=   0.00 deg.
 Initial guess orbital symmetries:
       Occupied  (A) (A) (A) (A) (A) (A) (A) (A) (A) (A) (A) (A)
                 (A) (A) (A) (A) (A) (A) (A) (A) (A) (A) (A) (A)
                 (A) (A) (A) (A) (A) (A) (A) (A) (A) (A) (A) (A)
                 (A) (A) (A)
       Virtual   (A) (A) (A) (A) (A) (A) (A) (A) (A) (A) (A) (A)
                 (A) (A) (A) (A) (A) (A) (A) (A) (A) (A) (A) (A)
                 (A) (A) (A) (A) (A) (A) (A) (A) (A) (A) (A) (A)
                 (A) (A) (A) (A) (A) (A) (A) (A) (A) (A) (A) (A)
                 (A) (A) (A) (A) (A) (A) (A) (A) (A) (A) (A) (A)
                 (A) (A) (A) (A) (A) (A) (A) (A) (A) (A) (A) (A)
                 (A) (A) (A) (A) (A) (A) (A) (A) (A) (A) (A) (A)
                 (A) (A) (A) (A) (A) (A) (A) (A) (A) (A) (A) (A)
                 (A) (A) (A) (A) (A) (A) (A) (A) (A) (A) (A) (A)
                 (A) (A) (A) (A) (A) (A) (A) (A) (A) (A) (A) (A)
                 (A) (A) (A) (A) (A) (A) (A) (A) (A) (A) (A) (A)
                 (A)
 Harris functional with IExCor=  205 diagonalized for initial guess.
 ExpMin= 1.03D-01 ExpMax= 8.59D+03 ExpMxC= 1.30D+03 IAcc=1 IRadAn=         1 AccDes= 0.00D+00
 HarFok:  IExCor=  205 AccDes= 0.00D+00 IRadAn=         1 IDoV= 1
 ScaDFX=  1.000000  1.000000  1.000000  1.000000
 FoFCou: FMM=F IPFlag=           0 FMFlag=      100000 FMFlg1=           0
         NFxFlg=           0 DoJE=T BraDBF=F KetDBF=T FulRan=T
         Omega=  0.000000  0.000000  1.000000  0.000000  0.000000 ICntrl=     500 IOpCl=  0
         NMat0=    1 NMatS0=    1 NMatT0=    0 NMatD0=    1 NMtDS0=    0 NMtDT0=    0
         I1Cent=           4 NGrid=           0.
 Petite list used in FoFCou.
 Requested convergence on RMS density matrix=1.00D-08 within 128 cycles.
 Requested convergence on MAX density matrix=1.00D-06.
 Requested convergence on             energy=1.00D-06.
 No special actions if energy rises.
 Integral accuracy reduced to 1.0D-05 until final iterations.
 Initial convergence to 1.0D-05 achieved.  Increase integral accuracy.
 SCF Done:  E(RHF) =  -460.701302406     A.U. after   14 cycles
             Convg  =    0.5467D-08             -V/T =  1.9996
 Calling FoFJK, ICntrl=      2127 FMM=F ISym2X=0 I1Cent= 0 IOpClX= 0 NMat=1 NMatS=1 NMatT=0.
 ***** Axes restored to original set *****
 -------------------------------------------------------------------
 Center     Atomic                   Forces (Hartrees/Bohr)
 Number     Number              X              Y              Z
 -------------------------------------------------------------------
      1        6          -0.006530411    0.002395994    0.000371953
      2        1           0.000838667   -0.000994025   -0.001852236
      3        1           0.001056833   -0.000964409    0.001873842
      4        1           0.004171302    0.000102212   -0.000123241
      5        6           0.002501295    0.006399747   -0.000636188
      6        6           0.002590466   -0.004359281   -0.001452221
      7        1          -0.001223918   -0.004069057   -0.000329316
      8        6          -0.005369815    0.004806786    0.000378696
      9        8           0.000956785   -0.004583696    0.000371668
     10        8           0.014177799   -0.003264769    0.000191248
     11        1          -0.009880338    0.005424215   -0.000350726
     12        6          -0.005135600   -0.001841841   -0.000599689
     13        6           0.001930680    0.007332119   -0.000410543
     14        1           0.001505371   -0.000782093    0.002326037
     15        1           0.002315308   -0.001600938   -0.001439909
     16        1          -0.002000222   -0.001757186    0.000493672
     17        6           0.001117395   -0.002117129   -0.004686319
     18        1          -0.002560181    0.000596236    0.000656045
     19        1          -0.001436673    0.001144827    0.001126797
     20        1          -0.000279084   -0.000595589    0.002733026
     21        6           0.002460032   -0.000488510    0.006207338
     22        1          -0.002222566   -0.001189534   -0.001432790
     23        1           0.000979161   -0.001335844   -0.002324440
     24        1           0.000037717    0.001741764   -0.001092706
 -------------------------------------------------------------------
 Cartesian Forces:  Max     0.014177799 RMS     0.003353767

 GradGradGradGradGradGradGradGradGradGradGradGradGradGradGradGradGradGrad
 Berny optimization.
 Using GEDIIS/GDIIS optimizer.
 Internal  Forces:  Max     0.011265584 RMS     0.002460266
 Search for a local minimum.
 Step number   2 out of a maximum of  122
 All quantities printed in internal units (Hartrees-Bohrs-Radians)
 Mixed Optimization -- RFO/linear search
 Update second derivatives using D2CorX and points    1    2
 DE= -7.90D-03 DEPred=-9.99D-03 R= 7.91D-01
 SS=  1.41D+00  RLast= 3.00D-01 DXNew= 5.0454D-01 8.9997D-01
 Trust test= 7.91D-01 RLast= 3.00D-01 DXMaxT set to 5.05D-01
 Use linear search instead of GDIIS.
     Eigenvalues ---    0.00251   0.00265   0.00302   0.00316   0.00614
     Eigenvalues ---    0.00846   0.01146   0.01449   0.01964   0.02185
     Eigenvalues ---    0.02737   0.04888   0.05066   0.05114   0.05335
     Eigenvalues ---    0.05352   0.05477   0.05528   0.05572   0.05745
     Eigenvalues ---    0.07155   0.07265   0.14564   0.15332   0.15683
     Eigenvalues ---    0.16000   0.16000   0.16000   0.16000   0.16000
     Eigenvalues ---    0.16000   0.16000   0.16000   0.16000   0.16000
     Eigenvalues ---    0.16000   0.16000   0.16603   0.22190   0.24425
     Eigenvalues ---    0.24993   0.25000   0.27973   0.28560   0.28685
     Eigenvalues ---    0.28903   0.29077   0.31211   0.33664   0.33854
     Eigenvalues ---    0.33940   0.33980   0.34038   0.34057   0.34083
     Eigenvalues ---    0.34121   0.34164   0.34188   0.34199   0.34732
     Eigenvalues ---    0.34997   0.37655   0.46896   0.52652   0.54706
     Eigenvalues ---    0.980851000.000001000.000001000.000001000.00000
     Eigenvalues --- 1000.000001000.000001000.000001000.000001000.00000
     Eigenvalues --- 1000.000001000.000001000.000001000.000001000.00000
     Eigenvalues --- 1000.000001000.000001000.000001000.000001000.00000
     Eigenvalues --- 1000.000001000.000001000.000001000.000001000.00000
     Eigenvalues --- 1000.000001000.000001000.000001000.000001000.00000
     Eigenvalues --- 1000.000001000.000001000.000001000.000001000.00000
     Eigenvalues --- 1000.000001000.000001000.000001000.000001000.00000
     Eigenvalues --- 1000.000001000.000001000.000001000.000001000.00000
     Eigenvalues --- 1000.000001000.00000
 RFO step:  Lambda=-4.06893527D-03 EMin= 2.51020248D-03
 Quartic linear search produced a step of  0.08726.
 Iteration  1 RMS(Cart)=  0.11806158 RMS(Int)=  0.00347254
 Iteration  2 RMS(Cart)=  0.00584679 RMS(Int)=  0.00015159
 Iteration  3 RMS(Cart)=  0.00001300 RMS(Int)=  0.00015145
 Iteration  4 RMS(Cart)=  0.00000000 RMS(Int)=  0.00015145
 Variable       Old X    -DE/DX   Delta X   Delta X   Delta X     New X
                                 (Linear)    (Quad)   (Total)
    R1        2.05222  -0.00194  -0.00156  -0.00746  -0.00902   2.04320
    R2        2.05251  -0.00199  -0.00154  -0.00760  -0.00914   2.04337
    R3        2.04647  -0.00392  -0.00267  -0.01477  -0.01744   2.02904
    R4        2.84913   0.00071  -0.00062   0.00181   0.00119   2.85031
    R5        2.78671  -0.00355   0.00056  -0.01001  -0.00946   2.77725
    R6        2.30113   0.00404   0.00072   0.00506   0.00577   2.30691
    R7        2.02314  -0.00416  -0.00273  -0.01508  -0.01781   2.00533
    R8        2.53350  -0.00700  -0.00166  -0.01512  -0.01678   2.51672
    R9        2.57727  -0.00261   0.00012  -0.00517  -0.00505   2.57222
   R10        2.90749  -0.00339   0.00030  -0.01213  -0.01183   2.89566
   R11        1.80412  -0.01127  -0.00709  -0.03157  -0.03865   1.76547
   R12        2.89438   0.00282  -0.00040   0.00987   0.00948   2.90386
   R13        2.91733  -0.00124   0.00076  -0.00386  -0.00310   2.91423
   R14        2.91214   0.00180   0.00052   0.00709   0.00762   2.91975
   R15        2.05006  -0.00281  -0.00199  -0.01059  -0.01258   2.03748
   R16        2.04884  -0.00301  -0.00205  -0.01126  -0.01331   2.03553
   R17        2.05108  -0.00249  -0.00181  -0.00941  -0.01121   2.03987
   R18        2.04936  -0.00215  -0.00198  -0.00853  -0.01052   2.03885
   R19        2.04952  -0.00097  -0.00223  -0.00513  -0.00735   2.04216
   R20        2.05107  -0.00254  -0.00202  -0.00981  -0.01183   2.03924
   R21        2.05210  -0.00257  -0.00165  -0.00952  -0.01117   2.04094
   R22        2.05013  -0.00273  -0.00212  -0.01050  -0.01262   2.03751
   R23        2.05145  -0.00200  -0.00161  -0.00769  -0.00930   2.04215
    A1        1.88062   0.00007  -0.00014  -0.00342  -0.00365   1.87698
    A2        1.89428   0.00139   0.00153   0.01251   0.01404   1.90832
    A3        1.93834  -0.00054  -0.00083  -0.00514  -0.00602   1.93232
    A4        1.89307   0.00146   0.00150   0.01253   0.01401   1.90708
    A5        1.93793  -0.00081  -0.00080  -0.00711  -0.00796   1.92997
    A6        1.91825  -0.00144  -0.00111  -0.00837  -0.00949   1.90875
    A7        1.99629   0.00198  -0.00058   0.00783   0.00721   2.00349
    A8        2.08968   0.00175  -0.00140   0.00613   0.00468   2.09436
    A9        2.19717  -0.00373   0.00198  -0.01381  -0.01187   2.18530
   A10        1.99996   0.00018  -0.00194  -0.00214  -0.00408   1.99589
   A11        2.23031  -0.00174   0.00549  -0.00322   0.00226   2.23257
   A12        2.05291   0.00155  -0.00355   0.00535   0.00180   2.05471
   A13        2.07745   0.00012   0.00279   0.00380   0.00644   2.08389
   A14        2.16468   0.00944  -0.00351   0.03706   0.03339   2.19807
   A15        2.03930  -0.00952   0.00062  -0.03894  -0.03850   2.00080
   A16        2.01062   0.00088   0.00361   0.00900   0.01261   2.02323
   A17        1.93202   0.00439  -0.00078   0.05146   0.05079   1.98280
   A18        1.94334  -0.00416   0.00359  -0.03923  -0.03571   1.90763
   A19        1.87869   0.00041   0.00109   0.00357   0.00399   1.88268
   A20        1.87989   0.00037  -0.00219   0.00046  -0.00145   1.87843
   A21        1.91160  -0.00234  -0.00093  -0.00585  -0.00719   1.90441
   A22        1.91846   0.00132  -0.00074  -0.01040  -0.01140   1.90706
   A23        1.94635  -0.00019  -0.00022   0.00050   0.00023   1.94659
   A24        1.95378   0.00051   0.00007   0.00499   0.00503   1.95882
   A25        1.91987  -0.00170  -0.00174  -0.01615  -0.01792   1.90195
   A26        1.88598   0.00052   0.00077   0.01044   0.01116   1.89713
   A27        1.88249   0.00067   0.00081   0.00202   0.00277   1.88526
   A28        1.87239   0.00025   0.00042  -0.00158  -0.00118   1.87121
   A29        1.91573  -0.00149  -0.00208  -0.00955  -0.01166   1.90406
   A30        1.99292  -0.00229   0.00288  -0.01408  -0.01124   1.98168
   A31        1.94070  -0.00019  -0.00041  -0.00190  -0.00234   1.93835
   A32        1.85157   0.00201  -0.00141   0.01214   0.01069   1.86226
   A33        1.87876   0.00123   0.00081   0.01225   0.01306   1.89182
   A34        1.87881   0.00104   0.00012   0.00343   0.00350   1.88231
   A35        1.93119  -0.00149  -0.00093  -0.01140  -0.01236   1.91883
   A36        1.93676  -0.00066  -0.00063  -0.00352  -0.00415   1.93261
   A37        1.95515  -0.00018  -0.00049  -0.00214  -0.00265   1.95250
   A38        1.88283   0.00124   0.00109   0.01002   0.01110   1.89392
   A39        1.87886   0.00062   0.00043   0.00185   0.00222   1.88108
   A40        1.87613   0.00063   0.00067   0.00628   0.00695   1.88308
    D1       -1.03691   0.00050   0.00030   0.01405   0.01436  -1.02255
    D2        2.11405   0.00032   0.00090  -0.00278  -0.00194   2.11211
    D3        1.05531  -0.00031  -0.00099   0.00159   0.00066   1.05597
    D4       -2.07692  -0.00049  -0.00039  -0.01524  -0.01564  -2.09256
    D5       -3.13328   0.00005  -0.00035   0.00720   0.00689  -3.12638
    D6        0.01768  -0.00013   0.00025  -0.00962  -0.00941   0.00827
    D7       -0.03820  -0.00016   0.00030  -0.01063  -0.01027  -0.04847
    D8        3.10439  -0.00004   0.00027  -0.00545  -0.00512   3.09927
    D9        3.09335   0.00007  -0.00035   0.00754   0.00713   3.10048
   D10       -0.04725   0.00019  -0.00038   0.01272   0.01227  -0.03497
   D11       -0.02751   0.00056  -0.00031   0.03025   0.03024   0.00273
   D12       -3.10321   0.00022   0.00205  -0.00414  -0.00240  -3.10560
   D13        3.11510   0.00068  -0.00034   0.03557   0.03554  -3.13255
   D14        0.03941   0.00034   0.00202   0.00118   0.00290   0.04231
   D15       -3.14131  -0.00060   0.00263  -0.02055  -0.01751   3.12436
   D16       -0.06092   0.00041   0.00034   0.01413   0.01406  -0.04686
   D17       -0.27796   0.00137   0.00555   0.13339   0.13841  -0.13955
   D18       -2.36862   0.00073   0.00644   0.12435   0.13101  -2.23761
   D19        1.81077   0.00133   0.00464   0.15838   0.16309   1.97386
   D20        2.92821   0.00072   0.00781   0.09827   0.10571   3.03393
   D21        0.83755   0.00008   0.00870   0.08924   0.09831   0.93587
   D22       -1.26625   0.00068   0.00690   0.12326   0.13040  -1.13585
   D23       -1.00407   0.00096  -0.00108   0.02019   0.01905  -0.98502
   D24        1.11134   0.00185  -0.00019   0.03751   0.03725   1.14858
   D25       -3.09190   0.00137  -0.00079   0.02800   0.02714  -3.06477
   D26        1.12425  -0.00124   0.00146   0.00365   0.00522   1.12947
   D27       -3.04353  -0.00035   0.00234   0.02097   0.02342  -3.02011
   D28       -0.96358  -0.00084   0.00175   0.01147   0.01331  -0.95028
   D29       -3.07292  -0.00077  -0.00135  -0.01191  -0.01329  -3.08621
   D30       -0.95751   0.00013  -0.00047   0.00541   0.00491  -0.95260
   D31        1.12243  -0.00036  -0.00107  -0.00409  -0.00520   1.11723
   D32       -3.10997   0.00136  -0.00355  -0.01274  -0.01644  -3.12641
   D33       -1.03379   0.00136  -0.00488  -0.01329  -0.01830  -1.05209
   D34        1.09632   0.00090  -0.00294  -0.02063  -0.02370   1.07262
   D35        1.05193  -0.00175  -0.00341  -0.05260  -0.05605   0.99587
   D36        3.12811  -0.00175  -0.00474  -0.05315  -0.05792   3.07019
   D37       -1.02497  -0.00221  -0.00281  -0.06048  -0.06331  -1.08828
   D38       -1.02972   0.00010  -0.00047  -0.03990  -0.04020  -1.06993
[...]
    17  C    2.673611   1.546470   2.498906   2.744490   3.460602
    18  H    3.565516   2.165324   2.696139   3.027751   3.698518
    19  H    2.141767   2.203608   3.466203   3.766956   4.332367
    20  H    3.217807   2.178520   2.761394   2.565894   3.763843
    21  C    2.672793   1.546418   2.498886   3.460549   2.744399
    22  H    3.565116   2.165296   2.695919   3.698396   3.027250
    23  H    3.216329   2.178540   2.761684   3.764000   2.566142
    24  H    2.140994   2.203642   3.466224   4.332362   3.767057
                   16         17         18         19         20
    16  H    0.000000
    17  C    2.708958   0.000000
    18  H    2.455271   1.081442   0.000000
    19  H    3.698155   1.082040   1.742674   0.000000
    20  H    3.090533   1.081137   1.753683   1.747763   0.000000
    21  C    2.709078   2.531904   2.771152   2.788786   3.479620
    22  H    2.455197   2.771381   2.571346   3.122146   3.766291
    23  H    3.091110   3.479670   3.766259   3.785154   4.320491
    24  H    3.698113   2.788584   3.121435   2.609076   3.785109
                   21         22         23         24
    21  C    0.000000
    22  H    1.081442   0.000000
    23  H    1.081142   1.753653   0.000000
    24  H    1.082062   1.742575   1.747796   0.000000
 Stoichiometry    C8H14O2
 Framework group  C1[X(C8H14O2)]
 Deg. of freedom    66
 Full point group                 C1      NOp   1
 Largest Abelian subgroup         C1      NOp   1
 Largest concise Abelian subgroup C1      NOp   1
                         Standard orientation:                         
 ---------------------------------------------------------------------
 Center     Atomic      Atomic             Coordinates (Angstroms)
 Number     Number       Type             X           Y           Z
 ---------------------------------------------------------------------
      1          6           0       -3.325246    1.077903    0.000853
      2          1           0       -3.212354    1.707115    0.875282
      3          1           0       -3.212521    1.708958   -0.872261
      4          1           0       -4.311277    0.645032    0.000500
      5          6           0       -2.293241   -0.022355   -0.000334
      6          6           0       -0.897034    0.437010   -0.000542
      7          1           0       -0.775342    1.496720   -0.001128
      8          6           0        0.207885   -0.310618    0.000087
      9          8           0       -2.648294   -1.190185   -0.001031
     10          8           0        0.098577   -1.668207    0.000848
     11          1           0        0.913661   -2.144306    0.002444
     12          6           0        1.639397    0.223427   -0.000039
     13          6           0        1.692517    1.757276   -0.001173
     14          1           0        1.218101    2.172732   -0.878994
     15          1           0        1.218145    2.174069    0.876051
     16          1           0        2.725357    2.077828   -0.001429
     17          6           0        2.364421   -0.290750   -1.265556
     18          1           0        3.376819    0.088955   -1.285306
     19          1           0        2.424601   -1.370451   -1.303456
     20          1           0        1.857598    0.043516   -2.160124
     21          6           0        2.364108   -0.288888    1.266348
     22          1           0        3.376357    0.091218    1.286039
     23          1           0        1.856873    0.046242    2.160365
     24          1           0        2.424871   -1.368529    1.305620
 ---------------------------------------------------------------------
 Rotational constants (GHZ):      2.3818540      0.7546934      0.6594353

 **********************************************************************

            Population analysis using the SCF density.

 **********************************************************************

 Orbital symmetries:
       Occupied  (A) (A) (A) (A) (A) (A) (A) (A) (A) (A) (A) (A)
                 (A) (A) (A) (A) (A) (A) (A) (A) (A) (A) (A) (A)
                 (A) (A) (A) (A) (A) (A) (A) (A) (A) (A) (A) (A)
                 (A) (A) (A)
       Virtual   (A) (A) (A) (A) (A) (A) (A) (A) (A) (A) (A) (A)
                 (A) (A) (A) (A) (A) (A) (A) (A) (A) (A) (A) (A)
                 (A) (A) (A) (A) (A) (A) (A) (A) (A) (A) (A) (A)
                 (A) (A) (A) (A) (A) (A) (A) (A) (A) (A) (A) (A)
                 (A) (A) (A) (A) (A) (A) (A) (A) (A) (A) (A) (A)
                 (A) (A) (A) (A) (A) (A) (A) (A) (A) (A) (A) (A)
                 (A) (A) (A) (A) (A) (A) (A) (A) (A) (A) (A) (A)
                 (A) (A) (A) (A) (A) (A) (A) (A) (A) (A) (A) (A)
                 (A) (A) (A) (A) (A) (A) (A) (A) (A) (A) (A) (A)
                 (A) (A) (A) (A) (A) (A) (A) (A) (A) (A) (A) (A)
                 (A) (A) (A) (A) (A) (A) (A) (A) (A) (A) (A) (A)
                 (A)
 The electronic state is 1-A.
 Alpha  occ. eigenvalues --  -20.58981 -20.52152 -11.33675 -11.32708 -11.28344
 Alpha  occ. eigenvalues --  -11.24105 -11.24102 -11.23528 -11.22280 -11.22040
 Alpha  occ. eigenvalues --   -1.42571  -1.37494  -1.14071  -1.06026  -0.99898
 Alpha  occ. eigenvalues --   -0.96791  -0.96273  -0.87212  -0.79817  -0.75172
 Alpha  occ. eigenvalues --   -0.69144  -0.65268  -0.63506  -0.62785  -0.62383
 Alpha  occ. eigenvalues --   -0.60207  -0.58715  -0.58436  -0.56409  -0.55172
 Alpha  occ. eigenvalues --   -0.55147  -0.54153  -0.53823  -0.49084  -0.49002
 Alpha  occ. eigenvalues --   -0.48842  -0.47775  -0.38935  -0.34691
 Alpha virt. eigenvalues --    0.11599   0.12818   0.16148   0.16848   0.18783
 Alpha virt. eigenvalues --    0.19138   0.19612   0.20292   0.22482   0.23089
 Alpha virt. eigenvalues --    0.24788   0.24901   0.24963   0.27086   0.28260
 Alpha virt. eigenvalues --    0.30108   0.30624   0.34392   0.36387   0.36998
 Alpha virt. eigenvalues --    0.38118   0.40146   0.41805   0.42848   0.44838
 Alpha virt. eigenvalues --    0.48453   0.49387   0.53396   0.54870   0.54890
 Alpha virt. eigenvalues --    0.56734   0.58021   0.59409   0.60884   0.62636
 Alpha virt. eigenvalues --    0.62733   0.64654   0.64714   0.69532   0.73503
 Alpha virt. eigenvalues --    0.73515   0.75011   0.76212   0.77940   0.78201
 Alpha virt. eigenvalues --    0.79604   0.80512   0.81583   0.82405   0.82621
 Alpha virt. eigenvalues --    0.83005   0.83724   0.84684   0.85272   0.86115
 Alpha virt. eigenvalues --    0.86332   0.86353   0.88796   0.88833   0.89945
 Alpha virt. eigenvalues --    0.92744   0.94895   0.96731   1.03292   1.07573
 Alpha virt. eigenvalues --    1.12528   1.13147   1.18768   1.19239   1.20215
 Alpha virt. eigenvalues --    1.24191   1.26714   1.28262   1.31112   1.42268
 Alpha virt. eigenvalues --    1.48424   1.53351   1.93492   1.99198   2.48675
 Alpha virt. eigenvalues --    2.56210   2.57786   2.58455   2.58653   2.59099
 Alpha virt. eigenvalues --    2.62448   2.63174   2.63489   2.64095   2.65185
 Alpha virt. eigenvalues --    2.66022   2.69052   2.72236   2.92894   3.00454
 Alpha virt. eigenvalues --    3.12560   3.16557   3.16718   3.20748   3.24376
 Alpha virt. eigenvalues --    3.26521   3.27183   3.28748   3.31999   3.33520
 Alpha virt. eigenvalues --    3.34164   3.35292   3.37718   3.38720   3.41600
 Alpha virt. eigenvalues --    3.43071   3.50500   3.51325   3.58666   3.62462
 Alpha virt. eigenvalues --    3.68686   3.72297   5.37762   5.44204   5.44734
 Alpha virt. eigenvalues --    5.54022   5.58262   5.74691  24.38431  24.54608
 Alpha virt. eigenvalues --   24.57679  24.64930  24.66589  24.70246  24.77381
 Alpha virt. eigenvalues --   24.86556  51.59240  51.62518
          Condensed to atoms (all electrons):
              1          2          3          4          5          6
     1  C    5.683612   0.358989   0.358988   0.371702   0.189500  -0.212369
     2  H    0.358989   0.524714  -0.026282  -0.019485  -0.037612   0.006730
     3  H    0.358988  -0.026282   0.524805  -0.019505  -0.037639   0.006751
     4  H    0.371702  -0.019485  -0.019505   0.482384  -0.047165   0.013973
     5  C    0.189500  -0.037612  -0.037639  -0.047165   4.861954  -0.004553
     6  C   -0.212369   0.006730   0.006751   0.013973  -0.004553   6.161687
     7  H    0.008459   0.000781   0.000774  -0.000362  -0.029584   0.378944
     8  C    0.006345  -0.000488  -0.000473  -0.000644  -0.023908   0.366111
     9  O   -0.116202   0.002286   0.002287   0.011624   0.623966  -0.143696
    10  O   -0.000147   0.000003   0.000003   0.000005   0.003851  -0.132082
    11  H    0.000015  -0.000001  -0.000001  -0.000001  -0.000164   0.007521
    12  C   -0.000528   0.000008   0.000008   0.000004   0.009068  -0.075369
    13  C   -0.000055   0.000004   0.000004   0.000002  -0.001707   0.001722
    14  H   -0.000011  -0.000005   0.000001  -0.000001  -0.000104  -0.001512
    15  H   -0.000011   0.000001  -0.000005  -0.000001  -0.000103  -0.001506
    16  H    0.000000   0.000001   0.000001   0.000000  -0.000022   0.000336
    17  C    0.000003   0.000000  -0.000001   0.000000  -0.000169  -0.009758
    18  H    0.000000   0.000000   0.000000   0.000000   0.000009  -0.000215
    19  H    0.000002   0.000000   0.000000   0.000000  -0.000009   0.000722
    20  H   -0.000001   0.000000   0.000001   0.000000  -0.000044   0.001373
    21  C    0.000003  -0.000001   0.000000   0.000000  -0.000169  -0.009790
    22  H    0.000000   0.000000   0.000000   0.000000   0.000009  -0.000215
    23  H   -0.000001   0.000001   0.000000   0.000000  -0.000044   0.001378
    24  H    0.000002   0.000000   0.000000   0.000000  -0.000009   0.000722
              7          8          9         10         11         12
     1  C    0.008459   0.006345  -0.116202  -0.000147   0.000015  -0.000528
     2  H    0.000781  -0.000488   0.002286   0.000003  -0.000001   0.000008
     3  H    0.000774  -0.000473   0.002287   0.000003  -0.000001   0.000008
     4  H   -0.000362  -0.000644   0.011624   0.000005  -0.000001   0.000004
     5  C   -0.029584  -0.023908   0.623966   0.003851  -0.000164   0.009068
     6  C    0.378944   0.366111  -0.143696  -0.132082   0.007521  -0.075369
     7  H    0.483810  -0.032587   0.002924   0.004169  -0.000297  -0.013179
     8  C   -0.032587   5.131423   0.013803   0.242748  -0.034502   0.043563
     9  O    0.002924   0.013803   8.089885  -0.006278   0.000220   0.000113
    10  O    0.004169   0.242748  -0.006278   8.407149   0.266255  -0.110483
    11  H   -0.000297  -0.034502   0.000220   0.266255   0.345781   0.000386
    12  C   -0.013179   0.043563   0.000113  -0.110483   0.000386   6.306010
    13  C    0.005619  -0.060689  -0.000010   0.006837   0.000341   0.113338
    14  H    0.000148  -0.000400  -0.000006  -0.000117   0.000002  -0.045303
    15  H    0.000152  -0.000409  -0.000005  -0.000117   0.000002  -0.045300
    16  H    0.000190   0.009993   0.000000  -0.000183  -0.000008  -0.041858
    17  C    0.000435  -0.137501   0.000009   0.008461  -0.000328   0.226971
    18  H   -0.000003   0.010489   0.000000   0.000017  -0.000125  -0.043424
    19  H   -0.000015  -0.006731   0.000008   0.005074   0.004080  -0.042617
    20  H    0.000008  -0.000787  -0.000005  -0.000575  -0.000106  -0.038293
    21  C    0.000432  -0.137449   0.000009   0.008467  -0.000302   0.226880
    22  H   -0.000002   0.010486   0.000000   0.000016  -0.000125  -0.043412
    23  H    0.000008  -0.000789  -0.000005  -0.000573  -0.000108  -0.038287
    24  H   -0.000015  -0.006712   0.000008   0.005043   0.004097  -0.042634
             13         14         15         16         17         18
     1  C   -0.000055  -0.000011  -0.000011   0.000000   0.000003   0.000000
     2  H    0.000004  -0.000005   0.000001   0.000001   0.000000   0.000000
     3  H    0.000004   0.000001  -0.000005   0.000001  -0.000001   0.000000
     4  H    0.000002  -0.000001  -0.000001   0.000000   0.000000   0.000000
     5  C   -0.001707  -0.000104  -0.000103  -0.000022  -0.000169   0.000009
     6  C    0.001722  -0.001512  -0.001506   0.000336  -0.009758  -0.000215
     7  H    0.005619   0.000148   0.000152   0.000190   0.000435  -0.000003
     8  C   -0.060689  -0.000400  -0.000409   0.009993  -0.137501   0.010489
     9  O   -0.000010  -0.000006  -0.000005   0.000000   0.000009   0.000000
    10  O    0.006837  -0.000117  -0.000117  -0.000183   0.008461   0.000017
    11  H    0.000341   0.000002   0.000002  -0.000008  -0.000328  -0.000125
    12  C    0.113338  -0.045303  -0.045300  -0.041858   0.226971  -0.043424
    13  C    5.449506   0.391008   0.390998   0.382575  -0.100822  -0.007006
    14  H    0.391008   0.520411  -0.028428  -0.026453  -0.005678  -0.000176
    15  H    0.390998  -0.028428   0.520445  -0.026459   0.008950  -0.000075
    16  H    0.382575  -0.026453  -0.026459   0.534045  -0.005616   0.002621
    17  C   -0.100822  -0.005678   0.008950  -0.005616   5.435654   0.390907
    18  H   -0.007006  -0.000176  -0.000075   0.002621   0.390907   0.515706
    19  H    0.009210  -0.000133  -0.000259  -0.000226   0.380531  -0.027636
    20  H   -0.003567   0.002867  -0.000306  -0.000106   0.380466  -0.024930
    21  C   -0.100793   0.008950  -0.005675  -0.005618  -0.130099  -0.002526
    22  H   -0.007011  -0.000075  -0.000177   0.002622  -0.002523   0.002245
    23  H   -0.003571  -0.000306   0.002866  -0.000106   0.008322  -0.000103
    24  H    0.009211  -0.000259  -0.000133  -0.000226  -0.004787  -0.000670
             19         20         21         22         23         24
     1  C    0.000002  -0.000001   0.000003   0.000000  -0.000001   0.000002
     2  H    0.000000   0.000000  -0.000001   0.000000   0.000001   0.000000
     3  H    0.000000   0.000001   0.000000   0.000000   0.000000   0.000000
     4  H    0.000000   0.000000   0.000000   0.000000   0.000000   0.000000
     5  C   -0.000009  -0.000044  -0.000169   0.000009  -0.000044  -0.000009
     6  C    0.000722   0.001373  -0.009790  -0.000215   0.001378   0.000722
     7  H   -0.000015   0.000008   0.000432  -0.000002   0.000008  -0.000015
     8  C   -0.006731  -0.000787  -0.137449   0.010486  -0.000789  -0.006712
     9  O    0.000008  -0.000005   0.000009   0.000000  -0.000005   0.000008
    10  O    0.005074  -0.000575   0.008467   0.000016  -0.000573   0.005043
    11  H    0.004080  -0.000106  -0.000302  -0.000125  -0.000108   0.004097
    12  C   -0.042617  -0.038293   0.226880  -0.043412  -0.038287  -0.042634
    13  C    0.009210  -0.003567  -0.100793  -0.007011  -0.003571   0.009211
    14  H   -0.000133   0.002867   0.008950  -0.000075  -0.000306  -0.000259
    15  H   -0.000259  -0.000306  -0.005675  -0.000177   0.002866  -0.000133
    16  H   -0.000226  -0.000106  -0.005618   0.002622  -0.000106  -0.000226
    17  C    0.380531   0.380466  -0.130099  -0.002523   0.008322  -0.004787
    18  H   -0.027636  -0.024930  -0.002526   0.002245  -0.000103  -0.000670
    19  H    0.552359  -0.026289  -0.004791  -0.000669  -0.000070   0.002314
    20  H   -0.026289   0.508816   0.008321  -0.000103  -0.000319  -0.000070
    21  C   -0.004791   0.008321   5.435774   0.390926   0.380451   0.380524
    22  H   -0.000669  -0.000103   0.390926   0.515632  -0.024923  -0.027645
    23  H   -0.000070  -0.000319   0.380451  -0.024923   0.508828  -0.026299
    24  H    0.002314  -0.000070   0.380524  -0.027645  -0.026299   0.552452
 Mulliken atomic charges:
              1
     1  C   -0.648292
     2  H    0.190356
     3  H    0.190282
     4  H    0.207471
     5  C    0.494648
     6  C   -0.356907
     7  H    0.189190
     8  C    0.609108
     9  O   -0.480932
    10  O   -0.707543
    11  H    0.407371
    12  C   -0.345661
    13  C   -0.475144
    14  H    0.185579
    15  H    0.185555
    16  H    0.174498
    17  C   -0.443424
    18  H    0.184897
    19  H    0.155145
    20  H    0.193649
    21  C   -0.443524
    22  H    0.184945
    23  H    0.193649
    24  H    0.155086
 Sum of Mulliken atomic charges =   0.00000
 Mulliken charges with hydrogens summed into heavy atoms:
              1
     1  C   -0.060184
     5  C    0.494648
     6  C   -0.167717
     8  C    0.609108
     9  O   -0.480932
    10  O   -0.300171
    12  C   -0.345661
    13  C    0.070487
    17  C    0.090267
    21  C    0.090155
 Sum of Mulliken charges with hydrogens summed into heavy atoms =   0.00000
 Electronic spatial extent (au):  <R**2>=           1867.4695
 Charge=              0.0000 electrons
 Dipole moment (field-independent basis, Debye):
    X=              4.9374    Y=              3.3457    Z=              0.0048  Tot=              5.9642
 Quadrupole moment (field-independent basis, Debye-Ang):
   XX=            -63.4815   YY=            -64.5842   ZZ=            -62.9559
   XY=            -12.3700   XZ=             -0.0022   YZ=             -0.0112
 Traceless Quadrupole moment (field-independent basis, Debye-Ang):
   XX=              0.1923   YY=             -0.9103   ZZ=              0.7179
   XY=            -12.3700   XZ=             -0.0022   YZ=             -0.0112
 Octapole moment (field-independent basis, Debye-Ang**2):
  XXX=             13.8808  YYY=            -10.4505  ZZZ=              0.0027  XYY=             17.2195
  XXY=             19.3362  XXZ=              0.0234  XZZ=             -2.2921  YZZ=             -2.4230
  YYZ=              0.0218  XYZ=             -0.0004
 Hexadecapole moment (field-independent basis, Debye-Ang**3):
 XXXX=          -1761.9953 YYYY=           -468.2360 ZZZZ=           -247.9272 XXXY=            -51.8301
 XXXZ=             -0.0349 YYYX=            -32.0032 YYYZ=             -0.0644 ZZZX=              0.0005
 ZZZY=              0.0010 XXYY=           -395.3659 XXZZ=           -336.5852 YYZZ=           -121.7762
 XXYZ=             -0.0347 YYXZ=              0.0207 ZZXY=              1.2456
 N-N= 5.515194819570D+02 E-N=-2.181426582981D+03  KE= 4.609951169374D+02
 1|1|UNPC-DESKTOP-K2VF0AK|FOpt|RHF|6-311G|C8H14O2|MELIH|28-Nov-2024|0||
 # opt hf/6-311g geom=connectivity||Title Card Required||0,1|C,-3.32974
 17534,1.0620702085,-0.215628529|H,-3.2265332372,1.8587942309,0.5109093
 577|H,-3.199390852,1.4977453961,-1.198716235|H,-4.3183735057,0.6414828
 218,-0.1424919067|C,-2.3048446169,-0.0175085713,0.0287085705|C,-0.9059
 186455,0.427663655,-0.0436677296|H,-0.7775124518,1.4637915369,-0.26217
 48153|C,0.1940903298,-0.306811063,0.1304634913|O,-2.667245731,-1.15897
 45793,0.2645285884|O,0.0761729991,-1.6343246331,0.4111746898|H,0.88809
 61045,-2.1021287768,0.5250831215|C,1.6287888785,0.2113257841,0.0432533
 466|C,1.6916499496,1.7113468883,-0.2753396556|H,1.2336487985,1.9368852
 056,-1.2280259217|H,1.2062861068,2.3026027784,0.488274049|H,2.72638082
 34,2.021797545,-0.3249818414|C,2.3702154638,-0.5565581546,-1.075769200
 6|H,3.3851871867,-0.192229756,-1.157095085|H,2.4241298945,-1.620770531
 ,-0.887736985|H,1.8795588775,-0.4138207265,-2.0285223285|C,2.330365235
 5,-0.0290221435,1.4002471193|H,3.3445738496,0.3438879357,1.3574123746|
 H,1.811363467,0.4859358217,2.1966909255|H,2.3836571687,-1.0771542329,1
 .6637567092||Version=IA32W-G09RevA.02|State=1-A|HF=-460.7034116|RMSD=3
 .406e-009|RMSF=8.451e-006|Dipole=1.9505553,1.2822583,-0.2391171|Quadru
 pole=0.0264391,-0.5746481,0.548209,-9.001452,1.9011156,0.0832229|PG=C0
 1 [X(C8H14O2)]||@


 WE LEARN WISDOM FROM FAILURE MUCH MORE THAN FROM SUCCESS.
 WE DISCOVER WHAT WILL DO BY FINDING OUT WHAT WILL NOT DO...
 AND HE WHO NEVER MADE A MISTAKE NEVER MADE A DISCOVERY
 Job cpu time:  0 days  0 hours  6 minutes 49.0 seconds.
 File lengths (MBytes):  RWF=     24 Int=      0 D2E=      0 Chk=      3 Scr=      1
 Normal termination of Gaussian 09 at Thu Nov 28 01:20:18 2024.
