 Entering Link 1 = C:\G09W\l1.exe PID=     10372.
  
 Copyright (c) 1988,1990,1992,1993,1995,1998,2003,2009, Gaussian, Inc.
                  All Rights Reserved.
  
 This is part of the Gaussian(R) 09 program.  It is based on
 the Gaussian(R) 03 system (copyright 2003, Gaussian, Inc.),
 the Gaussian(R) 98 system (copyright 1998, Gaussian, Inc.),
 the Gaussian(R) 94 system (copyright 1995, Gaussian, Inc.),
 the Gaussian 92(TM) system (copyright 1992, Gaussian, Inc.),
 the Gaussian 90(TM) system (copyright 1990, Gaussian, Inc.),
 the Gaussian 88(TM) system (copyright 1988, Gaussian, Inc.),
 the Gaussian 86(TM) system (copyright 1986, Carnegie Mellon
 University), and the Gaussian 82(TM) system (copyright 1983,
 Carnegie Mellon University). Gaussian is a federally registered
 trademark of Gaussian, Inc.
  
 This software contains proprietary and confidential information,
 including trade secrets, belonging to Gaussian, Inc.
  
 This software is provided under written license and may be
 used, copied, transmitted, or stored only in accord with that
 written license.
  
 The following legend is applicable only to US Government
 contracts under FAR:
  
                    RESTRICTED RIGHTS LEGEND
  
 Use, reproduction and disclosure by the US Government is
 subject to restrictions as set forth in subparagraphs (a)
 and (c) of the Commercial Computer Software - Restricted
 Rights clause in FAR 52.227-19.
  
 Gaussian, Inc.
 340 Quinnipiac St., Bldg. 40, Wallingford CT 06492
  
  
 ---------------------------------------------------------------
 Warning -- This program may not be used in any manner that
 competes with the business of Gaussian, Inc. or will provide
 assistance to any competitor of Gaussian, Inc.  The licensee
 of this program is prohibited from giving any competitor of
 Gaussian, Inc. access to this program.  By using this program,
 the user acknowledges that Gaussian, Inc. is engaged in the
 business of creating and licensing software in the field of
 computational chemistry and represents and warrants to the
 licensee that it is not a competitor of Gaussian, Inc. and that
 it will not use this program in any manner prohibited above.
 ---------------------------------------------------------------
  

 Cite this work as:
 Gaussian 09, Revision A.02,
 M. J. Frisch, G. W. Trucks, H. B. Schlegel, G. E. Scuseria, 
 M. A. Robb, J. R. Cheeseman, G. Scalmani, V. Barone, B. Mennucci, 
 G. A. Petersson, H. Nakatsuji, M. Caricato, X. Li, H. P. Hratchian, 
 A. F. Izmaylov, J. Bloino, G. Zheng, J. L. Sonnenberg, M. Hada, 
 M. Ehara, K. Toyota, R. Fukuda, J. Hasegawa, M. Ishida, T. Nakajima, 
 Y. Honda, O. Kitao, H. Nakai, T. Vreven, J. A. Montgomery, Jr., 
 J. E. Peralta, F. Ogliaro, M. Bearpark, J. J. Heyd, E. Brothers, 
 K. N. Kudin, V. N. Staroverov, R. Kobayashi, J. Normand, 
 K. Raghavachari, A. Rendell, J. C. Burant, S. S. Iyengar, J. Tomasi, 
 M. Cossi, N. Rega, J. M. Millam, M. Klene, J. E. Knox, J. B. Cross, 
 V. Bakken, C. Adamo, J. Jaramillo, R. Gomperts, R. E. Stratmann, 
 O. Yazyev, A. J. Austin, R. Cammi, C. Pomelli, J. W. Ochterski, 
 R. L. Martin, K. Morokuma, V. G. Zakrzewski, G. A. Voth, 
 P. Salvador, J. J. Dannenberg, S. Dapprich, A. D. Daniels, 
 O. Farkas, J. B. Foresman, J. V. Ortiz, J. Cioslowski, 
 and D. J. Fox, Gaussian, Inc., Wallingford CT, 2009.
 
 ******************************************
 Gaussian 09:  IA32W-G09RevA.02 11-Jun-2009
                27-Nov-2024 
 ******************************************
 %chk=C:\G09W\Midterm1\E13energy.chk
 -----------------------------
 # hf/6-311g geom=connectivity
 -----------------------------
 1/38=1,57=2/1;
 2/12=2,17=6,18=5,40=1/2;
 3/5=4,6=6,11=9,16=1,25=1,30=1/1,2,3;
 4//1;
 5/5=2,38=5/2;
 6/7=2,8=2,9=2,10=2,28=1/1;
 99/5=1,9=1/99;
 -------------------
 Title Card Required
 -------------------
 Symbolic Z-matrix:
 Charge =  0 Multiplicity = 1
 C                     0.589     2.062     0.202 
 C                     1.95458   1.77692   0.18259 
 C                     2.88286   2.81505   0.1064 
 C                     2.44565   4.13895   0.04838 
 C                     1.08036   4.42386   0.06731 
 C                     0.15195   3.38535   0.14452 
 H                    -0.1427    1.2434    0.26252 
 H                     2.29883   0.73356   0.22869 
 H                     3.95926   2.59046   0.09173 
 H                     0.73547   5.46714   0.02159 
 H                    -0.92431   3.6102    0.15963 
 C                     3.47089   5.28498  -0.03582 
 O                     3.03484   6.64147   0.08543 
 H                     2.0837    6.66206   0.21389 
 C                     4.78492   5.01237  -0.22444 
 H                     5.29439   5.93337  -0.41706 
 C                     5.82486   3.87732  -0.26671 
 O                     7.01829   4.12294  -0.58132 
 C                     5.40288   2.43675   0.07722 
 C                     4.30697   1.97537  -0.90141 
 H                     4.66628   2.06142  -1.9056 
 H                     4.0545    0.95545  -0.6991 
 H                     3.4387    2.58867  -0.77949 
 C                     6.62187   1.50297  -0.03981 
 H                     6.99832   1.53167  -1.04099 
 H                     7.38475   1.82576   0.63748 
 H                     6.3295    0.50268   0.20276 
 C                     4.8578    2.39136   1.51681 
 H                     4.60987   1.38241   1.77267 
 H                     5.60267   2.75777   2.19195 
 H                     3.98213   3.00234   1.58607 
 
                          Input orientation:                          
 ---------------------------------------------------------------------
 Center     Atomic      Atomic             Coordinates (Angstroms)
 Number     Number       Type             X           Y           Z
 ---------------------------------------------------------------------
      1          6           0        0.588996    2.062002    0.201995
      2          6           0        1.954582    1.776923    0.182585
      3          6           0        2.882862    2.815052    0.106396
      4          6           0        2.445650    4.138947    0.048379
      5          6           0        1.080364    4.423856    0.067311
      6          6           0        0.151954    3.385346    0.144521
      7          1           0       -0.142699    1.243404    0.262516
      8          1           0        2.298834    0.733560    0.228687
      9          1           0        3.959264    2.590461    0.091725
     10          1           0        0.735473    5.467137    0.021593
     11          1           0       -0.924308    3.610202    0.159629
     12          6           0        3.470889    5.284981   -0.035823
     13          8           0        3.034843    6.641470    0.085428
     14          1           0        2.083700    6.662060    0.213894
     15          6           0        4.784919    5.012369   -0.224436
     16          1           0        5.294387    5.933367   -0.417063
     17          6           0        5.824864    3.877323   -0.266708
     18          8           0        7.018287    4.122939   -0.581324
     19          6           0        5.402876    2.436754    0.077221
     20          6           0        4.306973    1.975371   -0.901412
     21          1           0        4.666278    2.061420   -1.905600
     22          1           0        4.054504    0.955454   -0.699101
     23          1           0        3.438697    2.588668   -0.779492
     24          6           0        6.621869    1.502967   -0.039812
     25          1           0        6.998323    1.531666   -1.040991
     26          1           0        7.384751    1.825756    0.637476
     27          1           0        6.329497    0.502680    0.202764
     28          6           0        4.857798    2.391356    1.516814
     29          1           0        4.609873    1.382410    1.772667
     30          1           0        5.602672    2.757773    2.191946
     31          1           0        3.982127    3.002342    1.586067
 ---------------------------------------------------------------------
                    Distance matrix (angstroms):
                    1          2          3          4          5
     1  C    0.000000
     2  C    1.395160   0.000000
     3  C    2.416205   1.394712   0.000000
     4  C    2.790065   2.416260   1.395427   0.000000
     5  C    2.416183   2.789946   2.416356   1.394825   0.000000
     6  C    1.394829   2.416183   2.790080   2.416236   1.395138
     7  H    1.099610   2.165553   3.412986   3.889675   3.413102
     8  H    2.165414   1.099655   2.165330   3.413316   3.889601
     9  H    3.413229   2.165375   1.099680   2.165806   3.413209
    10  H    3.413055   3.889707   3.413506   2.165528   1.099761
    11  H    2.165365   3.413128   3.889684   3.412999   2.165471
    12  C    4.330065   3.827971   2.542941   1.540000   2.542987
    13  O    5.193003   4.983996   3.829492   2.571214   2.956032
    14  H    4.836819   4.886943   3.930609   2.554311   2.457178
    15  C    5.147066   4.317938   2.924974   2.511867   3.762339
    16  H    6.124656   5.365623   3.976600   3.398807   4.502358
    17  C    5.561419   4.426356   3.150079   3.403940   4.787540
    18  O    6.796826   5.632802   4.391499   4.615820   5.980820
    19  C    4.830057   3.512437   2.548417   3.412254   4.757392
    20  C    3.879222   2.597725   1.936190   3.007937   4.164673
    21  H    4.589792   3.434349   2.792251   3.614602   4.725703
    22  H    3.747822   2.421126   2.340870   3.644415   4.632786
    23  H    3.059655   1.946052   1.070047   2.018633   3.105918
    24  C    6.063543   4.680607   3.965239   4.939329   6.265089
    25  H    6.550247   5.195826   4.461008   5.358308   6.679471
    26  H    6.813790   5.449408   4.639801   5.485672   6.842550
    27  H    5.948516   4.556752   4.151584   5.322644   6.553424
    28  C    4.478828   3.253669   2.463568   3.320969   4.527817
    29  H    4.369933   3.120028   2.794904   3.905832   4.961458
    30  H    5.438837   4.278803   3.427851   4.058238   5.266988
    31  H    3.783284   2.753608   1.852805   2.452981   3.570371
                    6          7          8          9         10
     6  C    0.000000
     7  H    2.165331   0.000000
     8  H    3.412938   2.494427   0.000000
     9  H    3.889760   4.320860   2.494768   0.000000
    10  H    2.165516   4.320781   4.989362   4.321228   0.000000
    11  H    1.099604   2.494641   4.320704   4.989364   2.494420
    12  C    3.828376   5.429675   4.707347   2.741390   2.742076
    13  O    4.349354   6.266358   5.955303   4.155149   2.582679
    14  H    3.804380   5.858417   5.932421   4.484483   1.811777
    15  C    4.924195   6.222833   4.969321   2.578237   4.082323
    16  H    5.766490   7.212454   6.035589   3.635443   4.603638
    17  C    5.709032   6.544418   4.749900   2.294548   5.339711
    18  O    6.943877   7.764246   5.866622   3.486992   6.453226
    19  C    5.336341   5.675546   3.543853   1.451844   5.565156
    20  C    4.510674   4.657261   2.617602   1.218834   5.079367
    21  H    5.131754   5.338178   3.452997   2.183819   5.546549
    22  H    4.673966   4.315569   1.998100   1.818714   5.647180
    23  H    3.505877   3.965087   2.399404   1.014895   4.029235
    24  C    6.740707   6.776294   4.399172   2.879134   7.097047
    25  H    7.191267   7.264738   4.932976   3.411740   7.472636
    26  H    7.415434   7.559248   5.217907   3.551982   7.606041
    27  H    6.817272   6.514719   4.037354   3.160564   7.481428
    28  C    5.001617   5.281669   3.309964   1.696433   5.356275
    29  H    5.151277   4.988669   2.854082   2.169849   5.895951
    30  H    5.856288   6.247023   4.343636   2.672023   5.978353
    31  H    4.110349   4.675451   3.134220   1.550235   4.366183
                   11         12         13         14         15
    11  H    0.000000
    12  C    4.707530   0.000000
    13  O    4.986879   1.430000   0.000000
    14  H    4.285428   1.970533   0.960000   0.000000
    15  C    5.891422   1.355200   2.410965   3.195340   0.000000
    16  H    6.663470   1.972535   2.420630   3.352255   1.070000
    17  C    6.767897   2.752454   3.943186   4.688501   1.540000
    18  O    7.993543   3.772525   4.759767   5.606216   2.430306
    19  C    6.435606   3.443508   4.825689   5.374832   2.665832
    20  C    5.582542   3.521618   4.936055   5.305837   3.148029
    21  H    6.157804   3.913613   5.253821   5.685759   3.398308
    22  H    5.707335   4.418749   5.829748   6.105979   4.149382
    23  H    4.578350   2.797174   4.163699   4.406286   2.827496
    24  C    7.837411   4.922633   6.267906   6.875724   3.965397
    25  H    8.278277   5.247906   6.564152   7.214513   4.204903
    26  H    8.511935   5.266676   6.512876   7.188212   4.201966
    27  H    7.891530   5.576645   6.968017   7.480968   4.785972
    28  C    6.063026   3.564725   4.841022   5.256628   3.147535
    29  H    6.179977   4.449492   5.743275   6.056900   4.146766
    30  H    6.889006   3.986756   5.110211   5.615986   3.404530
    31  H    5.145612   2.846459   4.048767   4.345160   2.821809
                   16         17         18         19         20
    16  H    0.000000
    17  C    2.128692   0.000000
    18  O    2.505287   1.258400   0.000000
    19  C    3.533043   1.540000   2.426202   0.000000
    20  C    4.107958   2.514809   3.473576   1.540000   0.000000
    21  H    4.195503   2.706621   3.396398   2.148263   1.070000
    22  H    5.137750   3.443611   4.339452   2.148263   1.070000
    23  H    3.842129   2.759959   3.899580   2.148263   1.070000
    24  C    4.640363   2.514810   2.704558   1.540000   2.514809
    25  H    4.761056   2.734708   2.631804   2.148263   2.731249
    26  H    4.728017   2.731250   2.626180   2.148263   3.444311
    27  H    5.563094   3.444311   3.767693   2.148263   2.734709
    28  C    4.059105   2.514809   3.473943   1.540000   2.514810
    29  H    5.096537   3.443812   4.341916   2.148263   2.755730
    30  H    4.121452   2.710671   3.399804   2.148263   3.443813
    31  H    3.784900   2.755729   3.895073   2.148263   2.710672
                   21         22         23         24         25
    21  H    0.000000
    22  H    1.747303   0.000000
    23  H    1.747303   1.747303   0.000000
    24  C    2.759959   2.706621   3.443611   0.000000
    25  H    2.542955   3.019102   3.722441   1.070000   0.000000
    26  H    3.729996   3.692480   4.261593   1.070000   1.747303
    27  H    3.105023   2.488767   3.697689   1.070000   1.747303
    28  C    3.443612   2.759959   2.706622   2.514809   3.444311
    29  H    3.740840   2.569117   3.056179   2.710672   3.693729
    30  H    4.260472   3.742102   3.679786   2.755729   3.728681
    31  H    3.680372   3.068710   2.462177   3.443813   4.261661
                   26         27         28         29         30
    26  H    0.000000
    27  H    1.747303   0.000000
    28  C    2.734708   2.731250   0.000000
    29  H    3.030702   2.489101   1.070000   0.000000
    30  H    2.541818   3.093633   1.070000   1.747303   0.000000
    31  H    3.723174   3.697565   1.070000   1.747303   1.747303
                   31
    31  H    0.000000
 Stoichiometry    C13H16O2
 Framework group  C1[X(C13H16O2)]
 Deg. of freedom    87
 Full point group                 C1      NOp   1
 Largest Abelian subgroup         C1      NOp   1
 Largest concise Abelian subgroup C1      NOp   1
                         Standard orientation:                         
 ---------------------------------------------------------------------
 Center     Atomic      Atomic             Coordinates (Angstroms)
 Number     Number       Type             X           Y           Z
 ---------------------------------------------------------------------
      1          6           0       -2.872564   -1.810208   -0.079623
      2          6           0       -1.480006   -1.885591   -0.040004
      3          6           0       -0.718866   -0.717348   -0.006913
      4          6           0       -1.350241    0.527049   -0.014633
      5          6           0       -2.742455    0.602340   -0.054723
      6          6           0       -3.503711   -0.566364   -0.086825
      7          1           0       -3.472487   -2.731391   -0.105258
      8          1           0       -0.982747   -2.866374   -0.033559
      9          1           0        0.378750   -0.776692    0.024950
     10          1           0       -3.240350    1.582921   -0.060825
     11          1           0       -4.601250   -0.506766   -0.118229
     12          6           0       -0.509517    1.816798    0.021829
     13          8           0       -1.152926    3.082119    0.194713
     14          1           0       -2.100903    2.951713    0.271749
     15          6           0        0.837981    1.756759   -0.109364
     16          1           0        1.208912    2.754080   -0.221891
     17          6           0        2.040076    0.795404   -0.157982
     18          8           0        3.195042    1.236622   -0.392399
     19          6           0        1.828023   -0.711074    0.081096
     20          6           0        0.861482   -1.268251   -0.980483
     21          1           0        1.248964   -1.065588   -1.957051
     22          1           0        0.758937   -2.325271   -0.849739
     23          1           0       -0.095015   -0.801024   -0.872250
     24          6           0        3.179521   -1.442264   -0.020962
     25          1           0        3.592562   -1.293807   -0.996799
     26          1           0        3.852286   -1.052561    0.714169
     27          1           0        3.032741   -2.488460    0.148832
     28          6           0        1.231016   -0.929184    1.483811
     29          1           0        1.128830   -1.978107    1.668795
     30          1           0        1.879431   -0.498996    2.218247
     31          1           0        0.269982   -0.461993    1.539005
 ---------------------------------------------------------------------
 Rotational constants (GHZ):      0.9445200      0.5154668      0.3616121
 Standard basis: 6-311G (5D, 7F)
 There are   243 symmetry adapted basis functions of A   symmetry.
 Integral buffers will be    262144 words long.
 Raffenetti 1 integral format.
 Two-electron integral symmetry is turned on.
   243 basis functions,   470 primitive gaussians,   243 cartesian basis functions
    55 alpha electrons       55 beta electrons
       nuclear repulsion energy      1023.6377970609 Hartrees.
 NAtoms=   31 NActive=   31 NUniq=   31 SFac= 7.50D-01 NAtFMM=   80 NAOKFM=F Big=F
 One-electron integrals computed using PRISM.
 NBasis=   243 RedAO= T  NBF=   243
 NBsUse=   243 1.00D-06 NBFU=   243
 Harris functional with IExCor=  205 diagonalized for initial guess.
 ExpMin= 1.03D-01 ExpMax= 8.59D+03 ExpMxC= 1.30D+03 IAcc=1 IRadAn=         1 AccDes= 0.00D+00
 HarFok:  IExCor=  205 AccDes= 0.00D+00 IRadAn=         1 IDoV= 1
 ScaDFX=  1.000000  1.000000  1.000000  1.000000
 FoFCou: FMM=F IPFlag=           0 FMFlag=      100000 FMFlg1=           0
         NFxFlg=           0 DoJE=T BraDBF=F KetDBF=T FulRan=T
         Omega=  0.000000  0.000000  1.000000  0.000000  0.000000 ICntrl=     500 IOpCl=  0
         NMat0=    1 NMatS0=    1 NMatT0=    0 NMatD0=    1 NMtDS0=    0 NMtDT0=    0
         I1Cent=           4 NGrid=           0.
 Petite list used in FoFCou.
 Initial guess orbital symmetries:
       Occupied  (A) (A) (A) (A) (A) (A) (A) (A) (A) (A) (A) (A)
                 (A) (A) (A) (A) (A) (A) (A) (A) (A) (A) (A) (A)
                 (A) (A) (A) (A) (A) (A) (A) (A) (A) (A) (A) (A)
                 (A) (A) (A) (A) (A) (A) (A) (A) (A) (A) (A) (A)
                 (A) (A) (A) (A) (A) (A) (A)
       Virtual   (A) (A) (A) (A) (A) (A) (A) (A) (A) (A) (A) (A)
                 (A) (A) (A) (A) (A) (A) (A) (A) (A) (A) (A) (A)
                 (A) (A) (A) (A) (A) (A) (A) (A) (A) (A) (A) (A)
                 (A) (A) (A) (A) (A) (A) (A) (A) (A) (A) (A) (A)
                 (A) (A) (A) (A) (A) (A) (A) (A) (A) (A) (A) (A)
                 (A) (A) (A) (A) (A) (A) (A) (A) (A) (A) (A) (A)
                 (A) (A) (A) (A) (A) (A) (A) (A) (A) (A) (A) (A)
                 (A) (A) (A) (A) (A) (A) (A) (A) (A) (A) (A) (A)
                 (A) (A) (A) (A) (A) (A) (A) (A) (A) (A) (A) (A)
                 (A) (A) (A) (A) (A) (A) (A) (A) (A) (A) (A) (A)
                 (A) (A) (A) (A) (A) (A) (A) (A) (A) (A) (A) (A)
                 (A) (A) (A) (A) (A) (A) (A) (A) (A) (A) (A) (A)
                 (A) (A) (A) (A) (A) (A) (A) (A) (A) (A) (A) (A)
                 (A) (A) (A) (A) (A) (A) (A) (A) (A) (A) (A) (A)
                 (A) (A) (A) (A) (A) (A) (A) (A) (A) (A) (A) (A)
                 (A) (A) (A) (A) (A) (A) (A) (A)
 The electronic state of the initial guess is 1-A.
 Requested convergence on RMS density matrix=1.00D-08 within 128 cycles.
 Requested convergence on MAX density matrix=1.00D-06.
 Requested convergence on             energy=1.00D-06.
 No special actions if energy rises.
 Integral accuracy reduced to 1.0D-05 until final iterations.
 Initial convergence to 1.0D-05 achieved.  Increase integral accuracy.
 SCF Done:  E(RHF) =  -650.691429247     A.U. after   19 cycles
             Convg  =    0.4558D-08             -V/T =  1.9977

 **********************************************************************

            Population analysis using the SCF density.

 **********************************************************************

 Orbital symmetries:
       Occupied  (A) (A) (A) (A) (A) (A) (A) (A) (A) (A) (A) (A)
                 (A) (A) (A) (A) (A) (A) (A) (A) (A) (A) (A) (A)
                 (A) (A) (A) (A) (A) (A) (A) (A) (A) (A) (A) (A)
                 (A) (A) (A) (A) (A) (A) (A) (A) (A) (A) (A) (A)
                 (A) (A) (A) (A) (A) (A) (A)
       Virtual   (A) (A) (A) (A) (A) (A) (A) (A) (A) (A) (A) (A)
                 (A) (A) (A) (A) (A) (A) (A) (A) (A) (A) (A) (A)
                 (A) (A) (A) (A) (A) (A) (A) (A) (A) (A) (A) (A)
                 (A) (A) (A) (A) (A) (A) (A) (A) (A) (A) (A) (A)
                 (A) (A) (A) (A) (A) (A) (A) (A) (A) (A) (A) (A)
                 (A) (A) (A) (A) (A) (A) (A) (A) (A) (A) (A) (A)
                 (A) (A) (A) (A) (A) (A) (A) (A) (A) (A) (A) (A)
                 (A) (A) (A) (A) (A) (A) (A) (A) (A) (A) (A) (A)
                 (A) (A) (A) (A) (A) (A) (A) (A) (A) (A) (A) (A)
                 (A) (A) (A) (A) (A) (A) (A) (A) (A) (A) (A) (A)
                 (A) (A) (A) (A) (A) (A) (A) (A) (A) (A) (A) (A)
                 (A) (A) (A) (A) (A) (A) (A) (A) (A) (A) (A) (A)
                 (A) (A) (A) (A) (A) (A) (A) (A) (A) (A) (A) (A)
                 (A) (A) (A) (A) (A) (A) (A) (A) (A) (A) (A) (A)
                 (A) (A) (A) (A) (A) (A) (A) (A) (A) (A) (A) (A)
                 (A) (A) (A) (A) (A) (A) (A) (A)
 The electronic state is 1-A.
 Alpha  occ. eigenvalues --  -20.60933 -20.56081 -11.37446 -11.36206 -11.28979
 Alpha  occ. eigenvalues --  -11.27367 -11.27075 -11.26589 -11.25368 -11.25253
 Alpha  occ. eigenvalues --  -11.24720 -11.24559 -11.24479 -11.23041 -11.22993
 Alpha  occ. eigenvalues --   -1.41059  -1.38689  -1.28911  -1.16722  -1.09004
 Alpha  occ. eigenvalues --   -1.08433  -1.02998  -0.99352  -0.97749  -0.90052
 Alpha  occ. eigenvalues --   -0.87502  -0.86036  -0.79800  -0.78031  -0.73577
 Alpha  occ. eigenvalues --   -0.72671  -0.70001  -0.67637  -0.66045  -0.64503
 Alpha  occ. eigenvalues --   -0.63648  -0.62900  -0.61526  -0.59056  -0.58500
 Alpha  occ. eigenvalues --   -0.57065  -0.56700  -0.55992  -0.54263  -0.53214
 Alpha  occ. eigenvalues --   -0.52755  -0.51195  -0.50524  -0.48658  -0.48592
 Alpha  occ. eigenvalues --   -0.42588  -0.40027  -0.39673  -0.33363  -0.26747
 Alpha virt. eigenvalues --    0.06056   0.10546   0.13052   0.13749   0.14089
 Alpha virt. eigenvalues --    0.16542   0.18143   0.19142   0.19536   0.20313
 Alpha virt. eigenvalues --    0.21523   0.22487   0.22965   0.23846   0.25162
 Alpha virt. eigenvalues --    0.25687   0.26588   0.27359   0.29110   0.30008
 Alpha virt. eigenvalues --    0.31535   0.33930   0.34181   0.37543   0.38059
 Alpha virt. eigenvalues --    0.39539   0.40645   0.41536   0.42211   0.43597
 Alpha virt. eigenvalues --    0.44270   0.45241   0.46882   0.47651   0.50327
 Alpha virt. eigenvalues --    0.52818   0.53152   0.54774   0.55896   0.56673
 Alpha virt. eigenvalues --    0.57825   0.58949   0.59195   0.60956   0.61192
 Alpha virt. eigenvalues --    0.62002   0.63516   0.64188   0.65236   0.66495
 Alpha virt. eigenvalues --    0.67272   0.67645   0.69676   0.71008   0.71666
 Alpha virt. eigenvalues --    0.72836   0.74808   0.75565   0.77687   0.77921
 Alpha virt. eigenvalues --    0.77985   0.79489   0.80054   0.80759   0.81430
 Alpha virt. eigenvalues --    0.81544   0.81911   0.82173   0.82868   0.83502
 Alpha virt. eigenvalues --    0.83925   0.85751   0.85923   0.86926   0.87430
 Alpha virt. eigenvalues --    0.88344   0.89727   0.90457   0.91706   0.93601
 Alpha virt. eigenvalues --    0.95495   0.96366   0.98402   1.00767   1.02009
 Alpha virt. eigenvalues --    1.05038   1.05345   1.08298   1.09753   1.10178
 Alpha virt. eigenvalues --    1.10723   1.13641   1.15601   1.15996   1.17410
 Alpha virt. eigenvalues --    1.18306   1.19631   1.21831   1.22629   1.25978
 Alpha virt. eigenvalues --    1.28520   1.30168   1.31370   1.33240   1.38041
 Alpha virt. eigenvalues --    1.43103   1.44440   1.52261   1.57311   1.66820
 Alpha virt. eigenvalues --    1.96164   2.00536   2.44576   2.54372   2.57698
 Alpha virt. eigenvalues --    2.61754   2.62820   2.63980   2.64032   2.65549
 Alpha virt. eigenvalues --    2.66412   2.68456   2.69028   2.70884   2.73413
 Alpha virt. eigenvalues --    2.75218   2.85253   2.91735   2.93761   2.94084
 Alpha virt. eigenvalues --    2.94658   2.99420   3.06034   3.08847   3.09917
 Alpha virt. eigenvalues --    3.12503   3.13240   3.18205   3.19994   3.21256
 Alpha virt. eigenvalues --    3.26265   3.27827   3.28449   3.29901   3.31315
 Alpha virt. eigenvalues --    3.33898   3.34429   3.38848   3.40001   3.41921
 Alpha virt. eigenvalues --    3.42750   3.44776   3.48789   3.49369   3.52274
 Alpha virt. eigenvalues --    3.54654   3.56276   3.62212   3.64164   3.65145
 Alpha virt. eigenvalues --    3.66239   3.67831   3.72447   3.76271   3.80463
 Alpha virt. eigenvalues --    3.83307   3.98885   5.34245   5.43083   5.46084
 Alpha virt. eigenvalues --    5.50906   5.54790   5.66699  24.32996  24.39481
 Alpha virt. eigenvalues --   24.49648  24.55191  24.58948  24.65098  24.68312
 Alpha virt. eigenvalues --   24.76274  24.77933  24.80377  24.84689  24.90239
 Alpha virt. eigenvalues --   25.05054  51.54975  51.60619
          Condensed to atoms (all electrons):
              1          2          3          4          5          6
     1  C    4.957949   0.512514  -0.067623  -0.031643  -0.073184   0.461626
     2  C    0.512514   5.211181   0.375387   0.003675  -0.068810  -0.069153
     3  C   -0.067623   0.375387   7.649520   0.001785  -0.035416  -0.061110
     4  C   -0.031643   0.003675   0.001785   5.946862   0.263236  -0.055202
     5  C   -0.073184  -0.068810  -0.035416   0.263236   5.248562   0.458637
     6  C    0.461626  -0.069153  -0.061110  -0.055202   0.458637   5.124172
     7  H    0.395226  -0.044441   0.011263  -0.002058   0.009031  -0.044638
     8  H   -0.029002   0.403174  -0.075253   0.008666  -0.000714   0.005386
     9  H    0.012355  -0.069446   0.750556  -0.109442   0.003826   0.005729
    10  H    0.005072  -0.000252   0.003659  -0.082134   0.388391  -0.015167
    11  H   -0.042973   0.007541  -0.001605   0.008315  -0.040979   0.401150
    12  C   -0.000703   0.011868   0.052800   0.038363  -0.048589   0.013423
    13  O   -0.000030  -0.000037   0.001736  -0.116259   0.000147   0.000895
    14  H    0.000002   0.000000   0.001610   0.003929  -0.004065  -0.000297
    15  C    0.000064   0.001575  -0.070875  -0.175573   0.016101  -0.000201
    16  H    0.000004  -0.000044  -0.001122   0.016186  -0.000577  -0.000003
    17  C   -0.000084   0.001353   0.091034  -0.052675  -0.000486   0.000119
    18  O    0.000000   0.000000  -0.000343  -0.000076   0.000002   0.000000
    19  C    0.000594  -0.006183  -0.343611   0.045737   0.001263  -0.000466
    20  C   -0.001239  -0.022144  -1.217980   0.100082   0.004002   0.001095
    21  H   -0.000036   0.004911   0.080843  -0.004884  -0.000091  -0.000094
    22  H    0.000266  -0.007732   0.051725   0.000492  -0.000473  -0.000039
    23  H   -0.005292  -0.035214  -0.694444   0.038291  -0.003185   0.001810
    24  C   -0.000004  -0.000007  -0.002375   0.000200  -0.000008   0.000002
    25  H    0.000001   0.000019  -0.000029   0.000034   0.000001   0.000000
    26  H    0.000000  -0.000003  -0.000287   0.000005   0.000000   0.000000
    27  H    0.000004   0.000030   0.000945  -0.000070  -0.000002   0.000000
    28  C    0.000214   0.004479  -0.064754  -0.006713  -0.000224   0.000012
    29  H    0.000039   0.000237   0.009053  -0.000757  -0.000131   0.000001
    30  H   -0.000016  -0.000043   0.008196  -0.001156   0.000039   0.000007
    31  H   -0.000967   0.005348  -0.146038   0.016182  -0.002125  -0.000574
              7          8          9         10         11         12
     1  C    0.395226  -0.029002   0.012355   0.005072  -0.042973  -0.000703
     2  C   -0.044441   0.403174  -0.069446  -0.000252   0.007541   0.011868
     3  C    0.011263  -0.075253   0.750556   0.003659  -0.001605   0.052800
     4  C   -0.002058   0.008666  -0.109442  -0.082134   0.008315   0.038363
     5  C    0.009031  -0.000714   0.003826   0.388391  -0.040979  -0.048589
     6  C   -0.044638   0.005386   0.005729  -0.015167   0.401150   0.013423
     7  H    0.516403  -0.003407  -0.001005  -0.000136  -0.004517  -0.000063
     8  H   -0.003407   0.517026  -0.011257   0.000045  -0.000198  -0.000197
     9  H   -0.001005  -0.011257   1.797797  -0.001121  -0.000087  -0.001444
    10  H   -0.000136   0.000045  -0.001121   0.533088  -0.004442   0.008938
    11  H   -0.004517  -0.000198  -0.000087  -0.004442   0.514553  -0.000245
    12  C   -0.000063  -0.000197  -0.001444   0.008938  -0.000245   5.053158
    13  O    0.000000   0.000001  -0.000658  -0.001266  -0.000005   0.251404
    14  H    0.000000  -0.000001   0.000140   0.007504  -0.000009  -0.034913
    15  C   -0.000001   0.000137  -0.026796   0.002293   0.000002   0.326003
    16  H    0.000000  -0.000003   0.001173  -0.000045   0.000000  -0.014881
    17  C   -0.000003  -0.000035   0.036926  -0.000073   0.000001  -0.009478
    18  O    0.000000   0.000001  -0.002665   0.000000   0.000000   0.004074
    19  C    0.000054  -0.000244  -0.295002   0.000096  -0.000004  -0.013205
    20  C    0.000184   0.015171  -0.626732   0.000238  -0.000005  -0.021756
    21  H   -0.000009  -0.000854   0.021200  -0.000026   0.000000   0.002092
    22  H   -0.000054   0.001650  -0.067120  -0.000004   0.000003   0.000687
    23  H    0.000319   0.008472  -0.264489   0.000692   0.000071  -0.008784
    24  C    0.000000   0.000270  -0.012557   0.000000   0.000000  -0.000390
    25  H    0.000000  -0.000002  -0.000949   0.000000   0.000000  -0.000080
    26  H    0.000000  -0.000007   0.001698   0.000000   0.000000  -0.000061
    27  H    0.000000  -0.000084  -0.006094   0.000000   0.000000   0.000055
    28  C    0.000026   0.000650  -0.298450   0.000017  -0.000001  -0.002667
    29  H   -0.000002   0.000105  -0.001760   0.000000   0.000000   0.000646
    30  H   -0.000001  -0.000094   0.005277  -0.000003   0.000000   0.000076
    31  H    0.000076   0.001997  -0.122051   0.000277   0.000000   0.000054
             13         14         15         16         17         18
     1  C   -0.000030   0.000002   0.000064   0.000004  -0.000084   0.000000
     2  C   -0.000037   0.000000   0.001575  -0.000044   0.001353   0.000000
     3  C    0.001736   0.001610  -0.070875  -0.001122   0.091034  -0.000343
     4  C   -0.116259   0.003929  -0.175573   0.016186  -0.052675  -0.000076
     5  C    0.000147  -0.004065   0.016101  -0.000577  -0.000486   0.000002
     6  C    0.000895  -0.000297  -0.000201  -0.000003   0.000119   0.000000
     7  H    0.000000   0.000000  -0.000001   0.000000  -0.000003   0.000000
     8  H    0.000001  -0.000001   0.000137  -0.000003  -0.000035   0.000001
     9  H   -0.000658   0.000140  -0.026796   0.001173   0.036926  -0.002665
    10  H   -0.001266   0.007504   0.002293  -0.000045  -0.000073   0.000000
    11  H   -0.000005  -0.000009   0.000002   0.000000   0.000001   0.000000
    12  C    0.251404  -0.034913   0.326003  -0.014881  -0.009478   0.004074
    13  O    8.377291   0.268300  -0.055147  -0.001658   0.004072   0.000000
    14  H    0.268300   0.349871   0.004751   0.000165  -0.000093   0.000007
    15  C   -0.055147   0.004751   5.986292   0.357518   0.187597  -0.092529
    16  H   -0.001658   0.000165   0.357518   0.490743  -0.051739   0.003218
    17  C    0.004072  -0.000093   0.187597  -0.051739   5.015215   0.598987
    18  O    0.000000   0.000007  -0.092529   0.003218   0.598987   8.105050
    19  C   -0.000069   0.000033  -0.215015   0.008427  -0.169706  -0.134184
    20  C   -0.000071  -0.000028   0.048314  -0.000093  -0.118291   0.002996
    21  H    0.000002   0.000004  -0.005325  -0.000120   0.005910   0.001545
    22  H    0.000002   0.000002  -0.001078   0.000019   0.004620  -0.000297
    23  H    0.000093  -0.000044   0.023111  -0.000173  -0.000795   0.000127
    24  C    0.000001   0.000000   0.004262  -0.000125  -0.054583   0.004394
    25  H    0.000000   0.000000   0.000527  -0.000002  -0.006744   0.003861
    26  H    0.000000   0.000000   0.000553  -0.000018  -0.007171   0.003830
    27  H    0.000000   0.000000  -0.000129   0.000006   0.012520   0.000185
    28  C   -0.000019  -0.000011   0.026349  -0.000264  -0.103598   0.002829
    29  H   -0.000001   0.000001  -0.000598   0.000030   0.006477  -0.000281
    30  H    0.000009   0.000000  -0.001931  -0.000109  -0.001232   0.000985
    31  H   -0.000218  -0.000025   0.006310   0.000074  -0.010985  -0.000122
             19         20         21         22         23         24
     1  C    0.000594  -0.001239  -0.000036   0.000266  -0.005292  -0.000004
     2  C   -0.006183  -0.022144   0.004911  -0.007732  -0.035214  -0.000007
     3  C   -0.343611  -1.217980   0.080843   0.051725  -0.694444  -0.002375
     4  C    0.045737   0.100082  -0.004884   0.000492   0.038291   0.000200
     5  C    0.001263   0.004002  -0.000091  -0.000473  -0.003185  -0.000008
     6  C   -0.000466   0.001095  -0.000094  -0.000039   0.001810   0.000002
     7  H    0.000054   0.000184  -0.000009  -0.000054   0.000319   0.000000
     8  H   -0.000244   0.015171  -0.000854   0.001650   0.008472   0.000270
     9  H   -0.295002  -0.626732   0.021200  -0.067120  -0.264489  -0.012557
    10  H    0.000096   0.000238  -0.000026  -0.000004   0.000692   0.000000
    11  H   -0.000004  -0.000005   0.000000   0.000003   0.000071   0.000000
    12  C   -0.013205  -0.021756   0.002092   0.000687  -0.008784  -0.000390
    13  O   -0.000069  -0.000071   0.000002   0.000002   0.000093   0.000001
    14  H    0.000033  -0.000028   0.000004   0.000002  -0.000044   0.000000
    15  C   -0.215015   0.048314  -0.005325  -0.001078   0.023111   0.004262
    16  H    0.008427  -0.000093  -0.000120   0.000019  -0.000173  -0.000125
    17  C   -0.169706  -0.118291   0.005910   0.004620  -0.000795  -0.054583
    18  O   -0.134184   0.002996   0.001545  -0.000297   0.000127   0.004394
    19  C    7.419908   0.103807  -0.057904  -0.039245  -0.021119   0.205589
    20  C    0.103807   6.935945   0.302805   0.383736   0.805832  -0.082018
    21  H   -0.057904   0.302805   0.526730  -0.002669  -0.066719  -0.008690
    22  H   -0.039245   0.383736  -0.002669   0.453175  -0.033063   0.005207
    23  H   -0.021119   0.805832  -0.066719  -0.033063   1.046364   0.008078
    24  C    0.205589  -0.082018  -0.008690   0.005207   0.008078   5.235810
    25  H   -0.042115  -0.003000   0.004134  -0.000585  -0.000115   0.395680
    26  H   -0.038502   0.007339   0.000088  -0.000018  -0.000372   0.394285
    27  H   -0.066479  -0.005551  -0.000350   0.003651   0.000153   0.408041
    28  C    0.125767  -0.053757   0.008572   0.002550   0.025025  -0.090020
    29  H   -0.053232   0.001360   0.000222   0.003034  -0.002625  -0.000114
    30  H   -0.053157   0.009229   0.000249  -0.000059  -0.001882  -0.005366
    31  H    0.004986   0.033691  -0.002822  -0.000731   0.026317   0.006257
             25         26         27         28         29         30
     1  C    0.000001   0.000000   0.000004   0.000214   0.000039  -0.000016
     2  C    0.000019  -0.000003   0.000030   0.004479   0.000237  -0.000043
     3  C   -0.000029  -0.000287   0.000945  -0.064754   0.009053   0.008196
     4  C    0.000034   0.000005  -0.000070  -0.006713  -0.000757  -0.001156
     5  C    0.000001   0.000000  -0.000002  -0.000224  -0.000131   0.000039
     6  C    0.000000   0.000000   0.000000   0.000012   0.000001   0.000007
     7  H    0.000000   0.000000   0.000000   0.000026  -0.000002  -0.000001
     8  H   -0.000002  -0.000007  -0.000084   0.000650   0.000105  -0.000094
     9  H   -0.000949   0.001698  -0.006094  -0.298450  -0.001760   0.005277
    10  H    0.000000   0.000000   0.000000   0.000017   0.000000  -0.000003
    11  H    0.000000   0.000000   0.000000  -0.000001   0.000000   0.000000
    12  C   -0.000080  -0.000061   0.000055  -0.002667   0.000646   0.000076
    13  O    0.000000   0.000000   0.000000  -0.000019  -0.000001   0.000009
    14  H    0.000000   0.000000   0.000000  -0.000011   0.000001   0.000000
    15  C    0.000527   0.000553  -0.000129   0.026349  -0.000598  -0.001931
    16  H   -0.000002  -0.000018   0.000006  -0.000264   0.000030  -0.000109
    17  C   -0.006744  -0.007171   0.012520  -0.103598   0.006477  -0.001232
    18  O    0.003861   0.003830   0.000185   0.002829  -0.000281   0.000985
    19  C   -0.042115  -0.038502  -0.066479   0.125767  -0.053232  -0.053157
    20  C   -0.003000   0.007339  -0.005551  -0.053757   0.001360   0.009229
    21  H    0.004134   0.000088  -0.000350   0.008572   0.000222   0.000249
    22  H   -0.000585  -0.000018   0.003651   0.002550   0.003034  -0.000059
    23  H   -0.000115  -0.000372   0.000153   0.025025  -0.002625  -0.001882
    24  C    0.395680   0.394285   0.408041  -0.090020  -0.000114  -0.005366
    25  H    0.493006  -0.019923  -0.029596   0.008102  -0.000055   0.000037
    26  H   -0.019923   0.486094  -0.029234  -0.003707  -0.000707   0.003650
    27  H   -0.029596  -0.029234   0.548591  -0.006835   0.002913  -0.000411
    28  C    0.008102  -0.003707  -0.006835   5.731092   0.382381   0.401342
    29  H   -0.000055  -0.000707   0.002913   0.382381   0.504807  -0.020273
    30  H    0.000037   0.003650  -0.000411   0.401342  -0.020273   0.510056
    31  H   -0.000259  -0.000096   0.000121   0.445777  -0.023918  -0.028986
             31
     1  C   -0.000967
     2  C    0.005348
     3  C   -0.146038
     4  C    0.016182
     5  C   -0.002125
     6  C   -0.000574
     7  H    0.000076
     8  H    0.001997
     9  H   -0.122051
    10  H    0.000277
    11  H    0.000000
    12  C    0.000054
    13  O   -0.000218
    14  H   -0.000025
    15  C    0.006310
    16  H    0.000074
    17  C   -0.010985
    18  O   -0.000122
    19  C    0.004986
    20  C    0.033691
    21  H   -0.002822
    22  H   -0.000731
    23  H    0.026317
    24  C    0.006257
    25  H   -0.000259
    26  H   -0.000096
    27  H    0.000121
    28  C    0.445777
    29  H   -0.023918
    30  H   -0.028986
    31  H    0.549025
 Mulliken atomic charges:
              1
     1  C   -0.093136
     2  C   -0.219785
     3  C   -0.307246
     4  C    0.146604
     5  C   -0.114178
     6  C   -0.227120
     7  H    0.167755
     8  H    0.158600
     9  H    0.282447
    10  H    0.154358
    11  H    0.163432
    12  C    0.393815
    13  O   -0.728516
    14  H    0.403168
    15  C   -0.346562
    16  H    0.193411
    17  C    0.622941
    18  O   -0.501593
    19  C   -0.366820
    20  C   -0.603161
    21  H    0.191287
    22  H    0.242346
    23  H    0.153560
    24  C   -0.411817
    25  H    0.198052
    26  H    0.202561
    27  H    0.167620
    28  C   -0.534164
    29  H    0.193148
    30  H    0.175566
    31  H    0.243423
 Sum of Mulliken atomic charges =   0.00000
 Mulliken charges with hydrogens summed into heavy atoms:
              1
     1  C    0.074619
     2  C   -0.061185
     3  C   -0.024799
     4  C    0.146604
     5  C    0.040180
     6  C   -0.063688
    12  C    0.393815
    13  O   -0.325347
    15  C   -0.153151
    17  C    0.622941
    18  O   -0.501593
    19  C   -0.366820
    20  C   -0.015968
    24  C    0.156417
    28  C    0.077975
 Sum of Mulliken charges with hydrogens summed into heavy atoms =   0.00000
 Electronic spatial extent (au):  <R**2>=           3112.4232
 Charge=              0.0000 electrons
 Dipole moment (field-independent basis, Debye):
    X=             -3.7199    Y=             -4.2971    Z=              0.2504  Tot=              5.6890
 Quadrupole moment (field-independent basis, Debye-Ang):
   XX=            -96.2322   YY=            -94.2758   ZZ=            -96.4461
   XY=            -11.9637   XZ=              2.6855   YZ=              1.2886
 Traceless Quadrupole moment (field-independent basis, Debye-Ang):
   XX=             -0.5808   YY=              1.3756   ZZ=             -0.7948
   XY=            -11.9637   XZ=              2.6855   YZ=              1.2886
 Octapole moment (field-independent basis, Debye-Ang**2):
  XXX=            -74.8583  YYY=            -30.7412  ZZZ=              0.2168  XYY=            -19.8157
  XXY=            -11.1745  XXZ=             10.9936  XZZ=             15.0424  YZZ=              4.9129
  YYZ=             -0.7644  XYZ=              0.8707
 Hexadecapole moment (field-independent basis, Debye-Ang**3):
 XXXX=          -2610.8112 YYYY=          -1401.3468 ZZZZ=           -287.2408 XXXY=           -138.5105
 XXXZ=             32.0721 YYYX=            -19.0954 YYYZ=             -1.4778 ZZZX=             -5.9857
 ZZZY=              1.6826 XXYY=           -603.9528 XXZZ=           -502.8884 YYZZ=           -287.9537
 XXYZ=             20.3519 YYXZ=              0.2166 ZZXY=            -12.7908
 N-N= 1.023637797061D+03 E-N=-3.567500812546D+03  KE= 6.521793726428D+02
 1|1|UNPC-DESKTOP-K2VF0AK|SP|RHF|6-311G|C13H16O2|MELIH|27-Nov-2024|0||#
  hf/6-311g geom=connectivity||Title Card Required||0,1|C,0,0.58899593,
 2.06200198,0.20199547|C,0,1.95458178,1.77692317,0.182585|C,0,2.8828623
 9,2.81505232,0.10639619|C,0,2.44565013,4.13894659,0.04837949|C,0,1.080
 36441,4.42385624,0.06731137|C,0,0.15195438,3.38534602,0.1445205|H,0,-0
 .14269882,1.24340388,0.26251645|H,0,2.29883379,0.73355987,0.22868658|H
 ,0,3.95926376,2.59046073,0.09172522|H,0,0.73547325,5.46713669,0.021592
 52|H,0,-0.92430784,3.61020235,0.1596292|C,0,3.47088931,5.28498086,-0.0
 3582302|O,0,3.03484271,6.64146951,0.08542836|H,0,2.08369997,6.66206004
 ,0.21389434|C,0,4.78491947,5.01236943,-0.22443584|H,0,5.29438726,5.933
 36742,-0.41706311|C,0,5.82486361,3.87732349,-0.26670766|O,0,7.01828726
 ,4.12293935,-0.58132394|C,0,5.4028759,2.43675433,0.07722088|C,0,4.3069
 726,1.97537105,-0.90141154|H,0,4.66627821,2.06141954,-1.90560034|H,0,4
 .05450369,0.95545446,-0.69910086|H,0,3.43869688,2.58866781,-0.77949202
 |C,0,6.62186936,1.50296724,-0.03981179|H,0,6.99832259,1.53166597,-1.04
 099077|H,0,7.38475067,1.82575637,0.63747639|H,0,6.3294974,0.50267951,0
 .20276415|C,0,4.85779828,2.3913561,1.51681436|H,0,4.60987348,1.3824097
 2,1.77266683|H,0,5.60267153,2.75777335,2.19194565|H,0,3.98212721,3.002
 34237,1.58606721||Version=IA32W-G09RevA.02|State=1-A|HF=-650.6914292|R
 MSD=4.558e-009|Dipole=-1.6927247,-1.4387467,0.2727605|Quadrupole=-2.79
 9454,3.7389911,-0.9395371,-8.0916414,2.6969843,0.8442116|PG=C01 [X(C13
 H16O2)]||@


  THE LARGE PRINT GIVETH,
  AND THE SMALL PRINT TAKETH AWAY.

                     -- TOM WAITES
 Job cpu time:  0 days  0 hours  1 minutes 48.0 seconds.
 File lengths (MBytes):  RWF=     36 Int=      0 D2E=      0 Chk=      3 Scr=      1
 Normal termination of Gaussian 09 at Wed Nov 27 21:23:00 2024.
