 Entering Link 1 = C:\G09W\l1.exe PID=      6628.
  
 Copyright (c) 1988,1990,1992,1993,1995,1998,2003,2009, Gaussian, Inc.
                  All Rights Reserved.
  
 This is part of the Gaussian(R) 09 program.  It is based on
 the Gaussian(R) 03 system (copyright 2003, Gaussian, Inc.),
 the Gaussian(R) 98 system (copyright 1998, Gaussian, Inc.),
 the Gaussian(R) 94 system (copyright 1995, Gaussian, Inc.),
 the Gaussian 92(TM) system (copyright 1992, Gaussian, Inc.),
 the Gaussian 90(TM) system (copyright 1990, Gaussian, Inc.),
 the Gaussian 88(TM) system (copyright 1988, Gaussian, Inc.),
 the Gaussian 86(TM) system (copyright 1986, Carnegie Mellon
 University), and the Gaussian 82(TM) system (copyright 1983,
 Carnegie Mellon University). Gaussian is a federally registered
 trademark of Gaussian, Inc.
  
 This software contains proprietary and confidential information,
 including trade secrets, belonging to Gaussian, Inc.
  
 This software is provided under written license and may be
 used, copied, transmitted, or stored only in accord with that
 written license.
  
 The following legend is applicable only to US Government
 contracts under FAR:
  
                    RESTRICTED RIGHTS LEGEND
  
 Use, reproduction and disclosure by the US Government is
 subject to restrictions as set forth in subparagraphs (a)
 and (c) of the Commercial Computer Software - Restricted
 Rights clause in FAR 52.227-19.
  
 Gaussian, Inc.
 340 Quinnipiac St., Bldg. 40, Wallingford CT 06492
  
  
 ---------------------------------------------------------------
 Warning -- This program may not be used in any manner that
 competes with the business of Gaussian, Inc. or will provide
 assistance to any competitor of Gaussian, Inc.  The licensee
 of this program is prohibited from giving any competitor of
 Gaussian, Inc. access to this program.  By using this program,
 the user acknowledges that Gaussian, Inc. is engaged in the
 business of creating and licensing software in the field of
 computational chemistry and represents and warrants to the
 licensee that it is not a competitor of Gaussian, Inc. and that
 it will not use this program in any manner prohibited above.
 ---------------------------------------------------------------
  

 Cite this work as:
 Gaussian 09, Revision A.02,
 M. J. Frisch, G. W. Trucks, H. B. Schlegel, G. E. Scuseria, 
 M. A. Robb, J. R. Cheeseman, G. Scalmani, V. Barone, B. Mennucci, 
 G. A. Petersson, H. Nakatsuji, M. Caricato, X. Li, H. P. Hratchian, 
 A. F. Izmaylov, J. Bloino, G. Zheng, J. L. Sonnenberg, M. Hada, 
 M. Ehara, K. Toyota, R. Fukuda, J. Hasegawa, M. Ishida, T. Nakajima, 
 Y. Honda, O. Kitao, H. Nakai, T. Vreven, J. A. Montgomery, Jr., 
 J. E. Peralta, F. Ogliaro, M. Bearpark, J. J. Heyd, E. Brothers, 
 K. N. Kudin, V. N. Staroverov, R. Kobayashi, J. Normand, 
 K. Raghavachari, A. Rendell, J. C. Burant, S. S. Iyengar, J. Tomasi, 
 M. Cossi, N. Rega, J. M. Millam, M. Klene, J. E. Knox, J. B. Cross, 
 V. Bakken, C. Adamo, J. Jaramillo, R. Gomperts, R. E. Stratmann, 
 O. Yazyev, A. J. Austin, R. Cammi, C. Pomelli, J. W. Ochterski, 
 R. L. Martin, K. Morokuma, V. G. Zakrzewski, G. A. Voth, 
 P. Salvador, J. J. Dannenberg, S. Dapprich, A. D. Daniels, 
 O. Farkas, J. B. Foresman, J. V. Ortiz, J. Cioslowski, 
 and D. J. Fox, Gaussian, Inc., Wallingford CT, 2009.
 
 ******************************************
 Gaussian 09:  IA32W-G09RevA.02 11-Jun-2009
                22-Nov-2024 
 ******************************************
 %chk=C:\G09W\Midterm1\E13opt.chk
 ---------------------------------
 # opt hf/6-311g geom=connectivity
 ---------------------------------
 1/18=20,19=15,38=1,57=2/1,3;
 2/9=110,12=2,17=6,18=5,40=1/2;
 3/5=4,6=6,11=9,16=1,25=1,30=1,71=1/1,2,3;
 4//1;
 5/5=2,38=5/2;
 6/7=2,8=2,9=2,10=2,28=1/1;
 7//1,2,3,16;
 1/18=20,19=15/3(2);
 2/9=110/2;
 99//99;
 2/9=110/2;
 3/5=4,6=6,11=9,16=1,25=1,30=1,71=1/1,2,3;
 4/5=5,16=3/1;
 5/5=2,38=5/2;
 7//1,2,3,16;
 1/18=20,19=15/3(-5);
 2/9=110/2;
 6/7=2,8=2,9=2,10=2,19=2,28=1/1;
 99/9=1/99;
 -------------------
 Title Card Required
 -------------------
 Symbolic Z-matrix:
 Charge =  0 Multiplicity = 1
 C                     0.589     2.062     0.202 
 C                     1.95458   1.77692   0.18259 
 C                     2.88286   2.81505   0.1064 
 C                     2.44565   4.13895   0.04838 
 C                     1.08036   4.42386   0.06731 
 C                     0.15195   3.38535   0.14452 
 H                    -0.1427    1.2434    0.26252 
 H                     2.29883   0.73356   0.22869 
 H                     3.95926   2.59046   0.09173 
 H                     0.73547   5.46714   0.02159 
 H                    -0.92431   3.6102    0.15963 
 C                     3.47089   5.28498  -0.03582 
 O                     3.03484   6.64147   0.08543 
 H                     2.0837    6.66206   0.21389 
 C                     4.78492   5.01237  -0.22444 
 H                     5.29439   5.93337  -0.41706 
 C                     5.82486   3.87732  -0.26671 
 O                     7.01829   4.12294  -0.58132 
 C                     5.40288   2.43675   0.07722 
 C                     4.30697   1.97537  -0.90141 
 H                     4.66628   2.06142  -1.9056 
 H                     4.0545    0.95545  -0.6991 
 H                     3.4387    2.58867  -0.77949 
 C                     6.62187   1.50297  -0.03981 
 H                     6.99832   1.53167  -1.04099 
 H                     7.38475   1.82576   0.63748 
 H                     6.3295    0.50268   0.20276 
 C                     4.8578    2.39136   1.51681 
 H                     4.60987   1.38241   1.77267 
 H                     5.60267   2.75777   2.19195 
 H                     3.98213   3.00234   1.58607 
 

 GradGradGradGradGradGradGradGradGradGradGradGradGradGradGradGradGradGrad
 Berny optimization.
 Initialization pass.
                           ----------------------------
                           !    Initial Parameters    !
                           ! (Angstroms and Degrees)  !
 --------------------------                            --------------------------
 ! Name  Definition              Value          Derivative Info.                !
 --------------------------------------------------------------------------------
 ! R1    R(1,2)                  1.3952         estimate D2E/DX2                !
 ! R2    R(1,6)                  1.3948         estimate D2E/DX2                !
 ! R3    R(1,7)                  1.0996         estimate D2E/DX2                !
 ! R4    R(2,3)                  1.3947         estimate D2E/DX2                !
 ! R5    R(2,8)                  1.0997         estimate D2E/DX2                !
 ! R6    R(3,4)                  1.3954         estimate D2E/DX2                !
 ! R7    R(3,9)                  1.0997         estimate D2E/DX2                !
 ! R8    R(3,23)                 1.07           estimate D2E/DX2                !
 ! R9    R(4,5)                  1.3948         estimate D2E/DX2                !
 ! R10   R(4,12)                 1.54           estimate D2E/DX2                !
 ! R11   R(5,6)                  1.3951         estimate D2E/DX2                !
 ! R12   R(5,10)                 1.0998         estimate D2E/DX2                !
 ! R13   R(6,11)                 1.0996         estimate D2E/DX2                !
 ! R14   R(9,20)                 1.2188         estimate D2E/DX2                !
 ! R15   R(12,13)                1.43           estimate D2E/DX2                !
 ! R16   R(12,15)                1.3552         estimate D2E/DX2                !
 ! R17   R(13,14)                0.96           estimate D2E/DX2                !
 ! R18   R(15,16)                1.07           estimate D2E/DX2                !
 ! R19   R(15,17)                1.54           estimate D2E/DX2                !
 ! R20   R(17,18)                1.2584         estimate D2E/DX2                !
 ! R21   R(17,19)                1.54           estimate D2E/DX2                !
 ! R22   R(19,20)                1.54           estimate D2E/DX2                !
 ! R23   R(19,24)                1.54           estimate D2E/DX2                !
 ! R24   R(19,28)                1.54           estimate D2E/DX2                !
 ! R25   R(20,21)                1.07           estimate D2E/DX2                !
 ! R26   R(20,22)                1.07           estimate D2E/DX2                !
 ! R27   R(20,23)                1.07           estimate D2E/DX2                !
 ! R28   R(24,25)                1.07           estimate D2E/DX2                !
 ! R29   R(24,26)                1.07           estimate D2E/DX2                !
 ! R30   R(24,27)                1.07           estimate D2E/DX2                !
 ! R31   R(28,29)                1.07           estimate D2E/DX2                !
 ! R32   R(28,30)                1.07           estimate D2E/DX2                !
 ! R33   R(28,31)                1.07           estimate D2E/DX2                !
 ! A1    A(2,1,6)              119.9985         estimate D2E/DX2                !
 ! A2    A(2,1,7)              119.9972         estimate D2E/DX2                !
 ! A3    A(6,1,7)              120.0043         estimate D2E/DX2                !
 ! A4    A(1,2,3)              120.0086         estimate D2E/DX2                !
 ! A5    A(1,2,8)              119.9808         estimate D2E/DX2                !
 ! A6    A(3,2,8)              120.0105         estimate D2E/DX2                !
 ! A7    A(2,3,4)              119.9942         estimate D2E/DX2                !
 ! A8    A(2,3,9)              120.0128         estimate D2E/DX2                !
 ! A9    A(2,3,23)             103.5021         estimate D2E/DX2                !
 ! A10   A(4,3,9)              119.993          estimate D2E/DX2                !
 ! A11   A(4,3,23)             109.2112         estimate D2E/DX2                !
 ! A12   A(9,3,23)              55.7568         estimate D2E/DX2                !
 ! A13   A(3,4,5)              119.994          estimate D2E/DX2                !
 ! A14   A(3,4,12)             119.9811         estimate D2E/DX2                !
 ! A15   A(5,4,12)             120.0249         estimate D2E/DX2                !
 ! A16   A(4,5,6)              120.0047         estimate D2E/DX2                !
 ! A17   A(4,5,10)             120.0113         estimate D2E/DX2                !
 ! A18   A(6,5,10)             119.984          estimate D2E/DX2                !
 ! A19   A(1,6,5)              120.0            estimate D2E/DX2                !
 ! A20   A(1,6,11)             120.008          estimate D2E/DX2                !
 ! A21   A(5,6,11)             119.992          estimate D2E/DX2                !
 ! A22   A(3,9,20)             113.1524         estimate D2E/DX2                !
 ! A23   A(4,12,13)            119.8865         estimate D2E/DX2                !
 ! A24   A(4,12,15)            120.2269         estimate D2E/DX2                !
 ! A25   A(13,12,15)           119.8865         estimate D2E/DX2                !
 ! A26   A(12,13,14)           109.5            estimate D2E/DX2                !
 ! A27   A(12,15,16)           108.2752         estimate D2E/DX2                !
 ! A28   A(12,15,17)           143.79           estimate D2E/DX2                !
 ! A29   A(16,15,17)           107.9348         estimate D2E/DX2                !
 ! A30   A(15,17,18)           120.2269         estimate D2E/DX2                !
 ! A31   A(15,17,19)           119.8865         estimate D2E/DX2                !
 ! A32   A(18,17,19)           119.8865         estimate D2E/DX2                !
 ! A33   A(17,19,20)           109.4712         estimate D2E/DX2                !
 ! A34   A(17,19,24)           109.4712         estimate D2E/DX2                !
 ! A35   A(17,19,28)           109.4712         estimate D2E/DX2                !
 ! A36   A(20,19,24)           109.4712         estimate D2E/DX2                !
 ! A37   A(20,19,28)           109.4713         estimate D2E/DX2                !
 ! A38   A(24,19,28)           109.4712         estimate D2E/DX2                !
 ! A39   A(9,20,19)             62.2261         estimate D2E/DX2                !
 ! A40   A(9,20,21)            145.0769         estimate D2E/DX2                !
 ! A41   A(9,20,22)            105.0497         estimate D2E/DX2                !
 ! A42   A(9,20,23)             52.1501         estimate D2E/DX2                !
 ! A43   A(19,20,21)           109.4712         estimate D2E/DX2                !
 ! A44   A(19,20,22)           109.4712         estimate D2E/DX2                !
 ! A45   A(19,20,23)           109.4712         estimate D2E/DX2                !
 ! A46   A(21,20,22)           109.4713         estimate D2E/DX2                !
 ! A47   A(21,20,23)           109.4712         estimate D2E/DX2                !
 ! A48   A(22,20,23)           109.4712         estimate D2E/DX2                !
 ! A49   A(3,23,20)            129.5771         estimate D2E/DX2                !
 ! A50   A(19,24,25)           109.4712         estimate D2E/DX2                !
 ! A51   A(19,24,26)           109.4712         estimate D2E/DX2                !
 ! A52   A(19,24,27)           109.4712         estimate D2E/DX2                !
 ! A53   A(25,24,26)           109.4713         estimate D2E/DX2                !
 ! A54   A(25,24,27)           109.4712         estimate D2E/DX2                !
 ! A55   A(26,24,27)           109.4712         estimate D2E/DX2                !
 ! A56   A(19,28,29)           109.4712         estimate D2E/DX2                !
 ! A57   A(19,28,30)           109.4712         estimate D2E/DX2                !
 ! A58   A(19,28,31)           109.4712         estimate D2E/DX2                !
 ! A59   A(29,28,30)           109.4713         estimate D2E/DX2                !
 ! A60   A(29,28,31)           109.4712         estimate D2E/DX2                !
 ! A61   A(30,28,31)           109.4712         estimate D2E/DX2                !
 ! D1    D(6,1,2,3)              0.0323         estimate D2E/DX2                !
 ! D2    D(6,1,2,8)            179.9532         estimate D2E/DX2                !
 ! D3    D(7,1,2,3)           -179.9729         estimate D2E/DX2                !
 ! D4    D(7,1,2,8)             -0.052          estimate D2E/DX2                !
 ! D5    D(2,1,6,5)              0.0149         estimate D2E/DX2                !
 ! D6    D(2,1,6,11)           179.9892         estimate D2E/DX2                !
 ! D7    D(7,1,6,5)           -179.9798         estimate D2E/DX2                !
 ! D8    D(7,1,6,11)            -0.0056         estimate D2E/DX2                !
 ! D9    D(1,2,3,4)             -0.0568         estimate D2E/DX2                !
 ! D10   D(1,2,3,9)            179.9619         estimate D2E/DX2                !
 ! D11   D(1,2,3,23)          -122.0172         estimate D2E/DX2                !
 ! D12   D(8,2,3,4)           -179.9777         estimate D2E/DX2                !
 ! D13   D(8,2,3,9)              0.041          estimate D2E/DX2                !
 ! D14   D(8,2,3,23)            58.0619         estimate D2E/DX2                !
 ! D15   D(2,3,4,5)              0.0341         estimate D2E/DX2                !
 ! D16   D(2,3,4,12)          -179.9964         estimate D2E/DX2                !
 ! D17   D(9,3,4,5)           -179.9846         estimate D2E/DX2                !
 ! D18   D(9,3,4,12)            -0.0151         estimate D2E/DX2                !
 ! D19   D(23,3,4,5)           119.1526         estimate D2E/DX2                !
 ! D20   D(23,3,4,12)          -60.878          estimate D2E/DX2                !
 ! D21   D(2,3,9,20)            64.8862         estimate D2E/DX2                !
 ! D22   D(4,3,9,20)          -115.0951         estimate D2E/DX2                !
 ! D23   D(23,3,9,20)          -21.2704         estimate D2E/DX2                !
 ! D24   D(2,3,23,20)          -87.7771         estimate D2E/DX2                !
 ! D25   D(4,3,23,20)          143.312          estimate D2E/DX2                !
 ! D26   D(9,3,23,20)           29.5345         estimate D2E/DX2                !
 ! D27   D(3,4,5,6)              0.0131         estimate D2E/DX2                !
 ! D28   D(3,4,5,10)          -179.9995         estimate D2E/DX2                !
 ! D29   D(12,4,5,6)          -179.9563         estimate D2E/DX2                !
 ! D30   D(12,4,5,10)            0.0311         estimate D2E/DX2                !
 ! D31   D(3,4,12,13)         -171.62           estimate D2E/DX2                !
 ! D32   D(3,4,12,15)            8.38           estimate D2E/DX2                !
 ! D33   D(5,4,12,13)            8.3494         estimate D2E/DX2                !
 ! D34   D(5,4,12,15)         -171.6506         estimate D2E/DX2                !
 ! D35   D(4,5,6,1)             -0.0376         estimate D2E/DX2                !
 ! D36   D(4,5,6,11)           179.9881         estimate D2E/DX2                !
 ! D37   D(10,5,6,1)           179.975          estimate D2E/DX2                !
 ! D38   D(10,5,6,11)            0.0007         estimate D2E/DX2                !
 ! D39   D(3,9,20,19)          174.7411         estimate D2E/DX2                !
 ! D40   D(3,9,20,21)           90.2625         estimate D2E/DX2                !
 ! D41   D(3,9,20,22)          -80.8696         estimate D2E/DX2                !
 ! D42   D(3,9,20,23)           22.3213         estimate D2E/DX2                !
 ! D43   D(4,12,13,14)           0.0082         estimate D2E/DX2                !
 ! D44   D(15,12,13,14)       -179.9918         estimate D2E/DX2                !
 ! D45   D(4,12,15,16)         170.63           estimate D2E/DX2                !
 ! D46   D(4,12,15,17)          -9.37           estimate D2E/DX2                !
 ! D47   D(13,12,15,16)         -9.37           estimate D2E/DX2                !
 ! D48   D(13,12,15,17)        170.63           estimate D2E/DX2                !
 ! D49   D(12,15,17,18)        175.56           estimate D2E/DX2                !
 ! D50   D(12,15,17,19)         -4.44           estimate D2E/DX2                !
 ! D51   D(16,15,17,18)         -4.44           estimate D2E/DX2                !
 ! D52   D(16,15,17,19)        175.56           estimate D2E/DX2                !
 ! D53   D(15,17,19,20)         60.0266         estimate D2E/DX2                !
 ! D54   D(15,17,19,24)       -179.9734         estimate D2E/DX2                !
 ! D55   D(15,17,19,28)        -59.9734         estimate D2E/DX2                !
 ! D56   D(18,17,19,20)       -119.9734         estimate D2E/DX2                !
 ! D57   D(18,17,19,24)          0.0266         estimate D2E/DX2                !
 ! D58   D(18,17,19,28)        120.0266         estimate D2E/DX2                !
 ! D59   D(17,19,20,9)         -86.1097         estimate D2E/DX2                !
 ! D60   D(17,19,20,21)         56.7057         estimate D2E/DX2                !
 ! D61   D(17,19,20,22)        176.7057         estimate D2E/DX2                !
 ! D62   D(17,19,20,23)        -63.2943         estimate D2E/DX2                !
 ! D63   D(24,19,20,9)         153.8903         estimate D2E/DX2                !
 ! D64   D(24,19,20,21)        -63.2943         estimate D2E/DX2                !
 ! D65   D(24,19,20,22)         56.7057         estimate D2E/DX2                !
 ! D66   D(24,19,20,23)        176.7057         estimate D2E/DX2                !
 ! D67   D(28,19,20,9)          33.8903         estimate D2E/DX2                !
 ! D68   D(28,19,20,21)        176.7056         estimate D2E/DX2                !
 ! D69   D(28,19,20,22)        -63.2943         estimate D2E/DX2                !
 ! D70   D(28,19,20,23)         56.7057         estimate D2E/DX2                !
 ! D71   D(17,19,24,25)        -60.2135         estimate D2E/DX2                !
 ! D72   D(17,19,24,26)         59.7865         estimate D2E/DX2                !
 ! D73   D(17,19,24,27)        179.7865         estimate D2E/DX2                !
 ! D74   D(20,19,24,25)         59.7865         estimate D2E/DX2                !
 ! D75   D(20,19,24,26)        179.7865         estimate D2E/DX2                !
 ! D76   D(20,19,24,27)        -60.2135         estimate D2E/DX2                !
 ! D77   D(28,19,24,25)        179.7865         estimate D2E/DX2                !
 ! D78   D(28,19,24,26)        -60.2135         estimate D2E/DX2                !
 ! D79   D(28,19,24,27)         59.7865         estimate D2E/DX2                !
 ! D80   D(17,19,28,29)       -177.2176         estimate D2E/DX2                !
 ! D81   D(17,19,28,30)        -57.2176         estimate D2E/DX2                !
 ! D82   D(17,19,28,31)         62.7824         estimate D2E/DX2                !
 ! D83   D(20,19,28,29)         62.7824         estimate D2E/DX2                !
 ! D84   D(20,19,28,30)       -177.2176         estimate D2E/DX2                !
 ! D85   D(20,19,28,31)        -57.2176         estimate D2E/DX2                !
 ! D86   D(24,19,28,29)        -57.2176         estimate D2E/DX2                !
 ! D87   D(24,19,28,30)         62.7824         estimate D2E/DX2                !
 ! D88   D(24,19,28,31)       -177.2176         estimate D2E/DX2                !
 ! D89   D(9,20,23,3)          -27.7502         estimate D2E/DX2                !
 ! D90   D(19,20,23,3)         -53.5037         estimate D2E/DX2                !
 ! D91   D(21,20,23,3)        -173.5037         estimate D2E/DX2                !
 ! D92   D(22,20,23,3)          66.4962         estimate D2E/DX2                !
 --------------------------------------------------------------------------------
 Trust Radius=3.00D-01 FncErr=1.00D-07 GrdErr=1.00D-07
 Number of steps in this run= 186 maximum allowed number of steps= 186.
 GradGradGradGradGradGradGradGradGradGradGradGradGradGradGradGradGradGrad

                          Input orientation:                          
 ---------------------------------------------------------------------
 Center     Atomic      Atomic             Coordinates (Angstroms)
 Number     Number       Type             X           Y           Z
 ---------------------------------------------------------------------
      1          6           0        0.588996    2.062002    0.201995
      2          6           0        1.954582    1.776923    0.182585
      3          6           0        2.882862    2.815052    0.106396
      4          6           0        2.445650    4.138947    0.048379
      5          6           0        1.080364    4.423856    0.067311
      6          6           0        0.151954    3.385346    0.144521
      7          1           0       -0.142699    1.243404    0.262516
      8          1           0        2.298834    0.733560    0.228687
      9          1           0        3.959264    2.590461    0.091725
     10          1           0        0.735473    5.467137    0.021593
     11          1           0       -0.924308    3.610202    0.159629
     12          6           0        3.470889    5.284981   -0.035823
     13          8           0        3.034843    6.641470    0.085428
     14          1           0        2.083700    6.662060    0.213894
     15          6           0        4.784919    5.012369   -0.224436
     16          1           0        5.294387    5.933367   -0.417063
     17          6           0        5.824864    3.877323   -0.266708
     18          8           0        7.018287    4.122939   -0.581324
     19          6           0        5.402876    2.436754    0.077221
     20          6           0        4.306973    1.975371   -0.901412
     21          1           0        4.666278    2.061420   -1.905600
     22          1           0        4.054504    0.955454   -0.699101
     23          1           0        3.438697    2.588668   -0.779492
     24          6           0        6.621869    1.502967   -0.039812
     25          1           0        6.998323    1.531666   -1.040991
     26          1           0        7.384751    1.825756    0.637476
     27          1           0        6.329497    0.502680    0.202764
     28          6           0        4.857798    2.391356    1.516814
     29          1           0        4.609873    1.382410    1.772667
     30          1           0        5.602672    2.757773    2.191946
     31          1           0        3.982127    3.002342    1.586067
 ---------------------------------------------------------------------
                    Distance matrix (angstroms):
                    1          2          3          4          5
     1  C    0.000000
     2  C    1.395160   0.000000
     3  C    2.416205   1.394712   0.000000
     4  C    2.790065   2.416260   1.395427   0.000000
     5  C    2.416183   2.789946   2.416356   1.394825   0.000000
     6  C    1.394829   2.416183   2.790080   2.416236   1.395138
     7  H    1.099610   2.165553   3.412986   3.889675   3.413102
     8  H    2.165414   1.099655   2.165330   3.413316   3.889601
     9  H    3.413229   2.165375   1.099680   2.165806   3.413209
    10  H    3.413055   3.889707   3.413506   2.165528   1.099761
    11  H    2.165365   3.413128   3.889684   3.412999   2.165471
    12  C    4.330065   3.827971   2.542941   1.540000   2.542987
    13  O    5.193003   4.983996   3.829492   2.571214   2.956032
    14  H    4.836819   4.886943   3.930609   2.554311   2.457178
    15  C    5.147066   4.317938   2.924974   2.511867   3.762339
    16  H    6.124656   5.365623   3.976600   3.398807   4.502358
    17  C    5.561419   4.426356   3.150079   3.403940   4.787540
    18  O    6.796826   5.632802   4.391499   4.615820   5.980820
    19  C    4.830057   3.512437   2.548417   3.412254   4.757392
    20  C    3.879222   2.597725   1.936190   3.007937   4.164673
    21  H    4.589792   3.434349   2.792251   3.614602   4.725703
    22  H    3.747822   2.421126   2.340870   3.644415   4.632786
    23  H    3.059655   1.946052   1.070047   2.018633   3.105918
    24  C    6.063543   4.680607   3.965239   4.939329   6.265089
    25  H    6.550247   5.195826   4.461008   5.358308   6.679471
    26  H    6.813790   5.449408   4.639801   5.485672   6.842550
    27  H    5.948516   4.556752   4.151584   5.322644   6.553424
    28  C    4.478828   3.253669   2.463568   3.320969   4.527817
    29  H    4.369933   3.120028   2.794904   3.905832   4.961458
    30  H    5.438837   4.278803   3.427851   4.058238   5.266988
    31  H    3.783284   2.753608   1.852805   2.452981   3.570371
                    6          7          8          9         10
     6  C    0.000000
     7  H    2.165331   0.000000
     8  H    3.412938   2.494427   0.000000
     9  H    3.889760   4.320860   2.494768   0.000000
    10  H    2.165516   4.320781   4.989362   4.321228   0.000000
    11  H    1.099604   2.494641   4.320704   4.989364   2.494420
    12  C    3.828376   5.429675   4.707347   2.741390   2.742076
    13  O    4.349354   6.266358   5.955303   4.155149   2.582679
    14  H    3.804380   5.858417   5.932421   4.484483   1.811777
    15  C    4.924195   6.222833   4.969321   2.578237   4.082323
    16  H    5.766490   7.212454   6.035589   3.635443   4.603638
    17  C    5.709032   6.544418   4.749900   2.294548   5.339711
    18  O    6.943877   7.764246   5.866622   3.486992   6.453226
    19  C    5.336341   5.675546   3.543853   1.451844   5.565156
    20  C    4.510674   4.657261   2.617602   1.218834   5.079367
    21  H    5.131754   5.338178   3.452997   2.183819   5.546549
    22  H    4.673966   4.315569   1.998100   1.818714   5.647180
    23  H    3.505877   3.965087   2.399404   1.014895   4.029235
    24  C    6.740707   6.776294   4.399172   2.879134   7.097047
    25  H    7.191267   7.264738   4.932976   3.411740   7.472636
    26  H    7.415434   7.559248   5.217907   3.551982   7.606041
    27  H    6.817272   6.514719   4.037354   3.160564   7.481428
    28  C    5.001617   5.281669   3.309964   1.696433   5.356275
    29  H    5.151277   4.988669   2.854082   2.169849   5.895951
    30  H    5.856288   6.247023   4.343636   2.672023   5.978353
    31  H    4.110349   4.675451   3.134220   1.550235   4.366183
                   11         12         13         14         15
    11  H    0.000000
    12  C    4.707530   0.000000
    13  O    4.986879   1.430000   0.000000
    14  H    4.285428   1.970533   0.960000   0.000000
    15  C    5.891422   1.355200   2.410965   3.195340   0.000000
    16  H    6.663470   1.972535   2.420630   3.352255   1.070000
    17  C    6.767897   2.752454   3.943186   4.688501   1.540000
    18  O    7.993543   3.772525   4.759767   5.606216   2.430306
    19  C    6.435606   3.443508   4.825689   5.374832   2.665832
    20  C    5.582542   3.521618   4.936055   5.305837   3.148029
    21  H    6.157804   3.913613   5.253821   5.685759   3.398308
    22  H    5.707335   4.418749   5.829748   6.105979   4.149382
    23  H    4.578350   2.797174   4.163699   4.406286   2.827496
    24  C    7.837411   4.922633   6.267906   6.875724   3.965397
    25  H    8.278277   5.247906   6.564152   7.214513   4.204903
    26  H    8.511935   5.266676   6.512876   7.188212   4.201966
    27  H    7.891530   5.576645   6.968017   7.480968   4.785972
    28  C    6.063026   3.564725   4.841022   5.256628   3.147535
    29  H    6.179977   4.449492   5.743275   6.056900   4.146766
    30  H    6.889006   3.986756   5.110211   5.615986   3.404530
    31  H    5.145612   2.846459   4.048767   4.345160   2.821809
                   16         17         18         19         20
    16  H    0.000000
    17  C    2.128692   0.000000
    18  O    2.505287   1.258400   0.000000
    19  C    3.533043   1.540000   2.426202   0.000000
    20  C    4.107958   2.514809   3.473576   1.540000   0.000000
    21  H    4.195503   2.706621   3.396398   2.148263   1.070000
    22  H    5.137750   3.443611   4.339452   2.148263   1.070000
    23  H    3.842129   2.759959   3.899580   2.148263   1.070000
    24  C    4.640363   2.514810   2.704558   1.540000   2.514809
    25  H    4.761056   2.734708   2.631804   2.148263   2.731249
    26  H    4.728017   2.731250   2.626180   2.148263   3.444311
    27  H    5.563094   3.444311   3.767693   2.148263   2.734709
    28  C    4.059105   2.514809   3.473943   1.540000   2.514810
    29  H    5.096537   3.443812   4.341916   2.148263   2.755730
    30  H    4.121452   2.710671   3.399804   2.148263   3.443813
    31  H    3.784900   2.755729   3.895073   2.148263   2.710672
                   21         22         23         24         25
    21  H    0.000000
    22  H    1.747303   0.000000
    23  H    1.747303   1.747303   0.000000
    24  C    2.759959   2.706621   3.443611   0.000000
    25  H    2.542955   3.019102   3.722441   1.070000   0.000000
    26  H    3.729996   3.692480   4.261593   1.070000   1.747303
    27  H    3.105023   2.488767   3.697689   1.070000   1.747303
    28  C    3.443612   2.759959   2.706622   2.514809   3.444311
    29  H    3.740840   2.569117   3.056179   2.710672   3.693729
    30  H    4.260472   3.742102   3.679786   2.755729   3.728681
    31  H    3.680372   3.068710   2.462177   3.443813   4.261661
                   26         27         28         29         30
    26  H    0.000000
    27  H    1.747303   0.000000
    28  C    2.734708   2.731250   0.000000
    29  H    3.030702   2.489101   1.070000   0.000000
    30  H    2.541818   3.093633   1.070000   1.747303   0.000000
    31  H    3.723174   3.697565   1.070000   1.747303   1.747303
                   31
    31  H    0.000000
 Stoichiometry    C13H16O2
 Framework group  C1[X(C13H16O2)]
 Deg. of freedom    87
 Full point group                 C1      NOp   1
 Largest Abelian subgroup         C1      NOp   1
 Largest concise Abelian subgroup C1      NOp   1
                         Standard orientation:                         
 ---------------------------------------------------------------------
 Center     Atomic      Atomic             Coordinates (Angstroms)
 Number     Number       Type             X           Y           Z
 ---------------------------------------------------------------------
      1          6           0       -2.872564   -1.810208   -0.079623
      2          6           0       -1.480006   -1.885591   -0.040004
      3          6           0       -0.718866   -0.717348   -0.006913
      4          6           0       -1.350241    0.527049   -0.014633
      5          6           0       -2.742455    0.602340   -0.054723
      6          6           0       -3.503711   -0.566364   -0.086825
      7          1           0       -3.472487   -2.731391   -0.105258
      8          1           0       -0.982747   -2.866374   -0.033559
      9          1           0        0.378750   -0.776692    0.024950
     10          1           0       -3.240350    1.582921   -0.060825
     11          1           0       -4.601250   -0.506766   -0.118229
     12          6           0       -0.509517    1.816798    0.021829
     13          8           0       -1.152926    3.082119    0.194713
     14          1           0       -2.100903    2.951713    0.271749
     15          6           0        0.837981    1.756759   -0.109364
     16          1           0        1.208912    2.754080   -0.221891
     17          6           0        2.040076    0.795404   -0.157982
     18          8           0        3.195042    1.236622   -0.392399
     19          6           0        1.828023   -0.711074    0.081096
     20          6           0        0.861482   -1.268251   -0.980483
     21          1           0        1.248964   -1.065588   -1.957051
     22          1           0        0.758937   -2.325271   -0.849739
     23          1           0       -0.095015   -0.801024   -0.872250
     24          6           0        3.179521   -1.442264   -0.020962
     25          1           0        3.592562   -1.293807   -0.996799
     26          1           0        3.852286   -1.052561    0.714169
     27          1           0        3.032741   -2.488460    0.148832
     28          6           0        1.231016   -0.929184    1.483811
     29          1           0        1.128830   -1.978107    1.668795
     30          1           0        1.879431   -0.498996    2.218247
     31          1           0        0.269982   -0.461993    1.539005
 ---------------------------------------------------------------------
 Rotational constants (GHZ):      0.9445200      0.5154668      0.3616121
 Standard basis: 6-311G (5D, 7F)
 There are   243 symmetry adapted basis functions of A   symmetry.
 Integral buffers will be    262144 words long.
 Raffenetti 1 integral format.
 Two-electron integral symmetry is turned on.
   243 basis functions,   470 primitive gaussians,   243 cartesian basis functions
    55 alpha electrons       55 beta electrons
       nuclear repulsion energy      1023.6377970609 Hartrees.
 NAtoms=   31 NActive=   31 NUniq=   31 SFac= 7.50D-01 NAtFMM=   80 NAOKFM=F Big=F
 One-electron integrals computed using PRISM.
 NBasis=   243 RedAO= T  NBF=   243
 NBsUse=   243 1.00D-06 NBFU=   243
 Harris functional with IExCor=  205 diagonalized for initial guess.
 ExpMin= 1.03D-01 ExpMax= 8.59D+03 ExpMxC= 1.30D+03 IAcc=1 IRadAn=         1 AccDes= 0.00D+00
 HarFok:  IExCor=  205 AccDes= 0.00D+00 IRadAn=         1 IDoV= 1
 ScaDFX=  1.000000  1.000000  1.000000  1.000000
 FoFCou: FMM=F IPFlag=           0 FMFlag=      100000 FMFlg1=           0
         NFxFlg=           0 DoJE=T BraDBF=F KetDBF=T FulRan=T
         Omega=  0.000000  0.000000  1.000000  0.000000  0.000000 ICntrl=     500 IOpCl=  0
         NMat0=    1 NMatS0=    1 NMatT0=    0 NMatD0=    1 NMtDS0=    0 NMtDT0=    0
         I1Cent=           4 NGrid=           0.
 Petite list used in FoFCou.
 Initial guess orbital symmetries:
       Occupied  (A) (A) (A) (A) (A) (A) (A) (A) (A) (A) (A) (A)
                 (A) (A) (A) (A) (A) (A) (A) (A) (A) (A) (A) (A)
                 (A) (A) (A) (A) (A) (A) (A) (A) (A) (A) (A) (A)
                 (A) (A) (A) (A) (A) (A) (A) (A) (A) (A) (A) (A)
                 (A) (A) (A) (A) (A) (A) (A)
       Virtual   (A) (A) (A) (A) (A) (A) (A) (A) (A) (A) (A) (A)
                 (A) (A) (A) (A) (A) (A) (A) (A) (A) (A) (A) (A)
                 (A) (A) (A) (A) (A) (A) (A) (A) (A) (A) (A) (A)
                 (A) (A) (A) (A) (A) (A) (A) (A) (A) (A) (A) (A)
                 (A) (A) (A) (A) (A) (A) (A) (A) (A) (A) (A) (A)
                 (A) (A) (A) (A) (A) (A) (A) (A) (A) (A) (A) (A)
                 (A) (A) (A) (A) (A) (A) (A) (A) (A) (A) (A) (A)
                 (A) (A) (A) (A) (A) (A) (A) (A) (A) (A) (A) (A)
                 (A) (A) (A) (A) (A) (A) (A) (A) (A) (A) (A) (A)
                 (A) (A) (A) (A) (A) (A) (A) (A) (A) (A) (A) (A)
                 (A) (A) (A) (A) (A) (A) (A) (A) (A) (A) (A) (A)
                 (A) (A) (A) (A) (A) (A) (A) (A) (A) (A) (A) (A)
                 (A) (A) (A) (A) (A) (A) (A) (A) (A) (A) (A) (A)
                 (A) (A) (A) (A) (A) (A) (A) (A) (A) (A) (A) (A)
                 (A) (A) (A) (A) (A) (A) (A) (A) (A) (A) (A) (A)
                 (A) (A) (A) (A) (A) (A) (A) (A)
 The electronic state of the initial guess is 1-A.
 Requested convergence on RMS density matrix=1.00D-08 within 128 cycles.
 Requested convergence on MAX density matrix=1.00D-06.
 Requested convergence on             energy=1.00D-06.
 No special actions if energy rises.
 Integral accuracy reduced to 1.0D-05 until final iterations.
 Initial convergence to 1.0D-05 achieved.  Increase integral accuracy.
 SCF Done:  E(RHF) =  -650.691429247     A.U. after   19 cycles
             Convg  =    0.4558D-08             -V/T =  1.9977

 **********************************************************************

            Population analysis using the SCF density.

 **********************************************************************

 Orbital symmetries:
       Occupied  (A) (A) (A) (A) (A) (A) (A) (A) (A) (A) (A) (A)
                 (A) (A) (A) (A) (A) (A) (A) (A) (A) (A) (A) (A)
                 (A) (A) (A) (A) (A) (A) (A) (A) (A) (A) (A) (A)
                 (A) (A) (A) (A) (A) (A) (A) (A) (A) (A) (A) (A)
                 (A) (A) (A) (A) (A) (A) (A)
       Virtual   (A) (A) (A) (A) (A) (A) (A) (A) (A) (A) (A) (A)
                 (A) (A) (A) (A) (A) (A) (A) (A) (A) (A) (A) (A)
                 (A) (A) (A) (A) (A) (A) (A) (A) (A) (A) (A) (A)
                 (A) (A) (A) (A) (A) (A) (A) (A) (A) (A) (A) (A)
                 (A) (A) (A) (A) (A) (A) (A) (A) (A) (A) (A) (A)
                 (A) (A) (A) (A) (A) (A) (A) (A) (A) (A) (A) (A)
                 (A) (A) (A) (A) (A) (A) (A) (A) (A) (A) (A) (A)
                 (A) (A) (A) (A) (A) (A) (A) (A) (A) (A) (A) (A)
                 (A) (A) (A) (A) (A) (A) (A) (A) (A) (A) (A) (A)
                 (A) (A) (A) (A) (A) (A) (A) (A) (A) (A) (A) (A)
                 (A) (A) (A) (A) (A) (A) (A) (A) (A) (A) (A) (A)
                 (A) (A) (A) (A) (A) (A) (A) (A) (A) (A) (A) (A)
                 (A) (A) (A) (A) (A) (A) (A) (A) (A) (A) (A) (A)
                 (A) (A) (A) (A) (A) (A) (A) (A) (A) (A) (A) (A)
                 (A) (A) (A) (A) (A) (A) (A) (A) (A) (A) (A) (A)
                 (A) (A) (A) (A) (A) (A) (A) (A)
 The electronic state is 1-A.
 Alpha  occ. eigenvalues --  -20.60933 -20.56081 -11.37446 -11.36206 -11.28979
 Alpha  occ. eigenvalues --  -11.27367 -11.27075 -11.26589 -11.25368 -11.25253
 Alpha  occ. eigenvalues --  -11.24720 -11.24559 -11.24479 -11.23041 -11.22993
 Alpha  occ. eigenvalues --   -1.41059  -1.38689  -1.28911  -1.16722  -1.09004
 Alpha  occ. eigenvalues --   -1.08433  -1.02998  -0.99352  -0.97749  -0.90052
 Alpha  occ. eigenvalues --   -0.87502  -0.86036  -0.79800  -0.78031  -0.73577
 Alpha  occ. eigenvalues --   -0.72671  -0.70001  -0.67637  -0.66045  -0.64503
 Alpha  occ. eigenvalues --   -0.63648  -0.62900  -0.61526  -0.59056  -0.58500
 Alpha  occ. eigenvalues --   -0.57065  -0.56700  -0.55992  -0.54263  -0.53214
 Alpha  occ. eigenvalues --   -0.52755  -0.51195  -0.50524  -0.48658  -0.48592
 Alpha  occ. eigenvalues --   -0.42588  -0.40027  -0.39673  -0.33363  -0.26747
 Alpha virt. eigenvalues --    0.06056   0.10546   0.13052   0.13749   0.14089
 Alpha virt. eigenvalues --    0.16542   0.18143   0.19142   0.19536   0.20313
 Alpha virt. eigenvalues --    0.21523   0.22487   0.22965   0.23846   0.25162
 Alpha virt. eigenvalues --    0.25687   0.26588   0.27359   0.29110   0.30008
 Alpha virt. eigenvalues --    0.31535   0.33930   0.34181   0.37543   0.38059
 Alpha virt. eigenvalues --    0.39539   0.40645   0.41536   0.42211   0.43597
 Alpha virt. eigenvalues --    0.44270   0.45241   0.46882   0.47651   0.50327
 Alpha virt. eigenvalues --    0.52818   0.53152   0.54774   0.55896   0.56673
 Alpha virt. eigenvalues --    0.57825   0.58949   0.59195   0.60956   0.61192
 Alpha virt. eigenvalues --    0.62002   0.63516   0.64188   0.65236   0.66495
 Alpha virt. eigenvalues --    0.67272   0.67645   0.69676   0.71008   0.71666
 Alpha virt. eigenvalues --    0.72836   0.74808   0.75565   0.77687   0.77921
 Alpha virt. eigenvalues --    0.77985   0.79489   0.80054   0.80759   0.81430
 Alpha virt. eigenvalues --    0.81544   0.81911   0.82173   0.82868   0.83502
 Alpha virt. eigenvalues --    0.83925   0.85751   0.85923   0.86926   0.87430
 Alpha virt. eigenvalues --    0.88344   0.89727   0.90457   0.91706   0.93601
 Alpha virt. eigenvalues --    0.95495   0.96366   0.98402   1.00767   1.02009
 Alpha virt. eigenvalues --    1.05038   1.05345   1.08298   1.09753   1.10178
 Alpha virt. eigenvalues --    1.10723   1.13641   1.15601   1.15996   1.17410
 Alpha virt. eigenvalues --    1.18306   1.19631   1.21831   1.22629   1.25978
 Alpha virt. eigenvalues --    1.28520   1.30168   1.31370   1.33240   1.38041
 Alpha virt. eigenvalues --    1.43103   1.44440   1.52261   1.57311   1.66820
 Alpha virt. eigenvalues --    1.96164   2.00536   2.44576   2.54372   2.57698
 Alpha virt. eigenvalues --    2.61754   2.62820   2.63980   2.64032   2.65549
 Alpha virt. eigenvalues --    2.66412   2.68456   2.69028   2.70884   2.73413
 Alpha virt. eigenvalues --    2.75218   2.85253   2.91735   2.93761   2.94084
 Alpha virt. eigenvalues --    2.94658   2.99420   3.06034   3.08847   3.09917
 Alpha virt. eigenvalues --    3.12503   3.13240   3.18205   3.19994   3.21256
 Alpha virt. eigenvalues --    3.26265   3.27827   3.28449   3.29901   3.31315
 Alpha virt. eigenvalues --    3.33898   3.34429   3.38848   3.40001   3.41921
 Alpha virt. eigenvalues --    3.42750   3.44776   3.48789   3.49369   3.52274
 Alpha virt. eigenvalues --    3.54654   3.56276   3.62212   3.64164   3.65145
 Alpha virt. eigenvalues --    3.66239   3.67831   3.72447   3.76271   3.80463
 Alpha virt. eigenvalues --    3.83307   3.98885   5.34245   5.43083   5.46084
 Alpha virt. eigenvalues --    5.50906   5.54790   5.66699  24.32996  24.39481
 Alpha virt. eigenvalues --   24.49648  24.55191  24.58948  24.65098  24.68312
 Alpha virt. eigenvalues --   24.76274  24.77933  24.80377  24.84689  24.90239
 Alpha virt. eigenvalues --   25.05054  51.54975  51.60619
          Condensed to atoms (all electrons):
              1          2          3          4          5          6
     1  C    4.957949   0.512514  -0.067623  -0.031643  -0.073184   0.461626
     2  C    0.512514   5.211181   0.375387   0.003675  -0.068810  -0.069153
     3  C   -0.067623   0.375387   7.649520   0.001785  -0.035416  -0.061110
     4  C   -0.031643   0.003675   0.001785   5.946862   0.263236  -0.055202
     5  C   -0.073184  -0.068810  -0.035416   0.263236   5.248562   0.458637
     6  C    0.461626  -0.069153  -0.061110  -0.055202   0.458637   5.124172
     7  H    0.395226  -0.044441   0.011263  -0.002058   0.009031  -0.044638
     8  H   -0.029002   0.403174  -0.075253   0.008666  -0.000714   0.005386
     9  H    0.012355  -0.069446   0.750556  -0.109442   0.003826   0.005729
    10  H    0.005072  -0.000252   0.003659  -0.082134   0.388391  -0.015167
    11  H   -0.042973   0.007541  -0.001605   0.008315  -0.040979   0.401150
    12  C   -0.000703   0.011868   0.052800   0.038363  -0.048589   0.013423
    13  O   -0.000030  -0.000037   0.001736  -0.116259   0.000147   0.000895
    14  H    0.000002   0.000000   0.001610   0.003929  -0.004065  -0.000297
    15  C    0.000064   0.001575  -0.070875  -0.175573   0.016101  -0.000201
    16  H    0.000004  -0.000044  -0.001122   0.016186  -0.000577  -0.000003
    17  C   -0.000084   0.001353   0.091034  -0.052675  -0.000486   0.000119
    18  O    0.000000   0.000000  -0.000343  -0.000076   0.000002   0.000000
    19  C    0.000594  -0.006183  -0.343611   0.045737   0.001263  -0.000466
    20  C   -0.001239  -0.022144  -1.217980   0.100082   0.004002   0.001095
    21  H   -0.000036   0.004911   0.080843  -0.004884  -0.000091  -0.000094
    22  H    0.000266  -0.007732   0.051725   0.000492  -0.000473  -0.000039
    23  H   -0.005292  -0.035214  -0.694444   0.038291  -0.003185   0.001810
    24  C   -0.000004  -0.000007  -0.002375   0.000200  -0.000008   0.000002
    25  H    0.000001   0.000019  -0.000029   0.000034   0.000001   0.000000
    26  H    0.000000  -0.000003  -0.000287   0.000005   0.000000   0.000000
    27  H    0.000004   0.000030   0.000945  -0.000070  -0.000002   0.000000
    28  C    0.000214   0.004479  -0.064754  -0.006713  -0.000224   0.000012
    29  H    0.000039   0.000237   0.009053  -0.000757  -0.000131   0.000001
    30  H   -0.000016  -0.000043   0.008196  -0.001156   0.000039   0.000007
    31  H   -0.000967   0.005348  -0.146038   0.016182  -0.002125  -0.000574
              7          8          9         10         11         12
     1  C    0.395226  -0.029002   0.012355   0.005072  -0.042973  -0.000703
     2  C   -0.044441   0.403174  -0.069446  -0.000252   0.007541   0.011868
     3  C    0.011263  -0.075253   0.750556   0.003659  -0.001605   0.052800
     4  C   -0.002058   0.008666  -0.109442  -0.082134   0.008315   0.038363
     5  C    0.009031  -0.000714   0.003826   0.388391  -0.040979  -0.048589
     6  C   -0.044638   0.005386   0.005729  -0.015167   0.401150   0.013423
     7  H    0.516403  -0.003407  -0.001005  -0.000136  -0.004517  -0.000063
     8  H   -0.003407   0.517026  -0.011257   0.000045  -0.000198  -0.000197
     9  H   -0.001005  -0.011257   1.797797  -0.001121  -0.000087  -0.001444
    10  H   -0.000136   0.000045  -0.001121   0.533088  -0.004442   0.008938
    11  H   -0.004517  -0.000198  -0.000087  -0.004442   0.514553  -0.000245
    12  C   -0.000063  -0.000197  -0.001444   0.008938  -0.000245   5.053158
    13  O    0.000000   0.000001  -0.000658  -0.001266  -0.000005   0.251404
    14  H    0.000000  -0.000001   0.000140   0.007504  -0.000009  -0.034913
    15  C   -0.000001   0.000137  -0.026796   0.002293   0.000002   0.326003
    16  H    0.000000  -0.000003   0.001173  -0.000045   0.000000  -0.014881
    17  C   -0.000003  -0.000035   0.036926  -0.000073   0.000001  -0.009478
    18  O    0.000000   0.000001  -0.002665   0.000000   0.000000   0.004074
    19  C    0.000054  -0.000244  -0.295002   0.000096  -0.000004  -0.013205
    20  C    0.000184   0.015171  -0.626732   0.000238  -0.000005  -0.021756
    21  H   -0.000009  -0.000854   0.021200  -0.000026   0.000000   0.002092
    22  H   -0.000054   0.001650  -0.067120  -0.000004   0.000003   0.000687
    23  H    0.000319   0.008472  -0.264489   0.000692   0.000071  -0.008784
    24  C    0.000000   0.000270  -0.012557   0.000000   0.000000  -0.000390
    25  H    0.000000  -0.000002  -0.000949   0.000000   0.000000  -0.000080
    26  H    0.000000  -0.000007   0.001698   0.000000   0.000000  -0.000061
    27  H    0.000000  -0.000084  -0.006094   0.000000   0.000000   0.000055
    28  C    0.000026   0.000650  -0.298450   0.000017  -0.000001  -0.002667
    29  H   -0.000002   0.000105  -0.001760   0.000000   0.000000   0.000646
    30  H   -0.000001  -0.000094   0.005277  -0.000003   0.000000   0.000076
    31  H    0.000076   0.001997  -0.122051   0.000277   0.000000   0.000054
             13         14         15         16         17         18
     1  C   -0.000030   0.000002   0.000064   0.000004  -0.000084   0.000000
     2  C   -0.000037   0.000000   0.001575  -0.000044   0.001353   0.000000
     3  C    0.001736   0.001610  -0.070875  -0.001122   0.091034  -0.000343
     4  C   -0.116259   0.003929  -0.175573   0.016186  -0.052675  -0.000076
     5  C    0.000147  -0.004065   0.016101  -0.000577  -0.000486   0.000002
     6  C    0.000895  -0.000297  -0.000201  -0.000003   0.000119   0.000000
     7  H    0.000000   0.000000  -0.000001   0.000000  -0.000003   0.000000
     8  H    0.000001  -0.000001   0.000137  -0.000003  -0.000035   0.000001
     9  H   -0.000658   0.000140  -0.026796   0.001173   0.036926  -0.002665
    10  H   -0.001266   0.007504   0.002293  -0.000045  -0.000073   0.000000
    11  H   -0.000005  -0.000009   0.000002   0.000000   0.000001   0.000000
    12  C    0.251404  -0.034913   0.326003  -0.014881  -0.009478   0.004074
    13  O    8.377291   0.268300  -0.055147  -0.001658   0.004072   0.000000
    14  H    0.268300   0.349871   0.004751   0.000165  -0.000093   0.000007
    15  C   -0.055147   0.004751   5.986292   0.357518   0.187597  -0.092529
    16  H   -0.001658   0.000165   0.357518   0.490743  -0.051739   0.003218
    17  C    0.004072  -0.000093   0.187597  -0.051739   5.015215   0.598987
    18  O    0.000000   0.000007  -0.092529   0.003218   0.598987   8.105050
    19  C   -0.000069   0.000033  -0.215015   0.008427  -0.169706  -0.134184
    20  C   -0.000071  -0.000028   0.048314  -0.000093  -0.118291   0.002996
    21  H    0.000002   0.000004  -0.005325  -0.000120   0.005910   0.001545
    22  H    0.000002   0.000002  -0.001078   0.000019   0.004620  -0.000297
    23  H    0.000093  -0.000044   0.023111  -0.000173  -0.000795   0.000127
    24  C    0.000001   0.000000   0.004262  -0.000125  -0.054583   0.004394
    25  H    0.000000   0.000000   0.000527  -0.000002  -0.006744   0.003861
    26  H    0.000000   0.000000   0.000553  -0.000018  -0.007171   0.003830
    27  H    0.000000   0.000000  -0.000129   0.000006   0.012520   0.000185
    28  C   -0.000019  -0.000011   0.026349  -0.000264  -0.103598   0.002829
    29  H   -0.000001   0.000001  -0.000598   0.000030   0.006477  -0.000281
    30  H    0.000009   0.000000  -0.001931  -0.000109  -0.001232   0.000985
    31  H   -0.000218  -0.000025   0.006310   0.000074  -0.010985  -0.000122
             19         20         21         22         23         24
     1  C    0.000594  -0.001239  -0.000036   0.000266  -0.005292  -0.000004
     2  C   -0.006183  -0.022144   0.004911  -0.007732  -0.035214  -0.000007
     3  C   -0.343611  -1.217980   0.080843   0.051725  -0.694444  -0.002375
     4  C    0.045737   0.100082  -0.004884   0.000492   0.038291   0.000200
     5  C    0.001263   0.004002  -0.000091  -0.000473  -0.003185  -0.000008
     6  C   -0.000466   0.001095  -0.000094  -0.000039   0.001810   0.000002
     7  H    0.000054   0.000184  -0.000009  -0.000054   0.000319   0.000000
     8  H   -0.000244   0.015171  -0.000854   0.001650   0.008472   0.000270
     9  H   -0.295002  -0.626732   0.021200  -0.067120  -0.264489  -0.012557
    10  H    0.000096   0.000238  -0.000026  -0.000004   0.000692   0.000000
    11  H   -0.000004  -0.000005   0.000000   0.000003   0.000071   0.000000
    12  C   -0.013205  -0.021756   0.002092   0.000687  -0.008784  -0.000390
    13  O   -0.000069  -0.000071   0.000002   0.000002   0.000093   0.000001
    14  H    0.000033  -0.000028   0.000004   0.000002  -0.000044   0.000000
    15  C   -0.215015   0.048314  -0.005325  -0.001078   0.023111   0.004262
    16  H    0.008427  -0.000093  -0.000120   0.000019  -0.000173  -0.000125
    17  C   -0.169706  -0.118291   0.005910   0.004620  -0.000795  -0.054583
    18  O   -0.134184   0.002996   0.001545  -0.000297   0.000127   0.004394
    19  C    7.419908   0.103807  -0.057904  -0.039245  -0.021119   0.205589
    20  C    0.103807   6.935945   0.302805   0.383736   0.805832  -0.082018
    21  H   -0.057904   0.302805   0.526730  -0.002669  -0.066719  -0.008690
    22  H   -0.039245   0.383736  -0.002669   0.453175  -0.033063   0.005207
    23  H   -0.021119   0.805832  -0.066719  -0.033063   1.046364   0.008078
    24  C    0.205589  -0.082018  -0.008690   0.005207   0.008078   5.235810
    25  H   -0.042115  -0.003000   0.004134  -0.000585  -0.000115   0.395680
    26  H   -0.038502   0.007339   0.000088  -0.000018  -0.000372   0.394285
    27  H   -0.066479  -0.005551  -0.000350   0.003651   0.000153   0.408041
    28  C    0.125767  -0.053757   0.008572   0.002550   0.025025  -0.090020
    29  H   -0.053232   0.001360   0.000222   0.003034  -0.002625  -0.000114
    30  H   -0.053157   0.009229   0.000249  -0.000059  -0.001882  -0.005366
    31  H    0.004986   0.033691  -0.002822  -0.000731   0.026317   0.006257
             25         26         27         28         29         30
     1  C    0.000001   0.000000   0.000004   0.000214   0.000039  -0.000016
     2  C    0.000019  -0.000003   0.000030   0.004479   0.000237  -0.000043
     3  C   -0.000029  -0.000287   0.000945  -0.064754   0.009053   0.008196
     4  C    0.000034   0.000005  -0.000070  -0.006713  -0.000757  -0.001156
     5  C    0.000001   0.000000  -0.000002  -0.000224  -0.000131   0.000039
     6  C    0.000000   0.000000   0.000000   0.000012   0.000001   0.000007
     7  H    0.000000   0.000000   0.000000   0.000026  -0.000002  -0.000001
     8  H   -0.000002  -0.000007  -0.000084   0.000650   0.000105  -0.000094
     9  H   -0.000949   0.001698  -0.006094  -0.298450  -0.001760   0.005277
    10  H    0.000000   0.000000   0.000000   0.000017   0.000000  -0.000003
    11  H    0.000000   0.000000   0.000000  -0.000001   0.000000   0.000000
    12  C   -0.000080  -0.000061   0.000055  -0.002667   0.000646   0.000076
    13  O    0.000000   0.000000   0.000000  -0.000019  -0.000001   0.000009
    14  H    0.000000   0.000000   0.000000  -0.000011   0.000001   0.000000
    15  C    0.000527   0.000553  -0.000129   0.026349  -0.000598  -0.001931
    16  H   -0.000002  -0.000018   0.000006  -0.000264   0.000030  -0.000109
    17  C   -0.006744  -0.007171   0.012520  -0.103598   0.006477  -0.001232
    18  O    0.003861   0.003830   0.000185   0.002829  -0.000281   0.000985
    19  C   -0.042115  -0.038502  -0.066479   0.125767  -0.053232  -0.053157
    20  C   -0.003000   0.007339  -0.005551  -0.053757   0.001360   0.009229
    21  H    0.004134   0.000088  -0.000350   0.008572   0.000222   0.000249
    22  H   -0.000585  -0.000018   0.003651   0.002550   0.003034  -0.000059
    23  H   -0.000115  -0.000372   0.000153   0.025025  -0.002625  -0.001882
    24  C    0.395680   0.394285   0.408041  -0.090020  -0.000114  -0.005366
    25  H    0.493006  -0.019923  -0.029596   0.008102  -0.000055   0.000037
    26  H   -0.019923   0.486094  -0.029234  -0.003707  -0.000707   0.003650
    27  H   -0.029596  -0.029234   0.548591  -0.006835   0.002913  -0.000411
    28  C    0.008102  -0.003707  -0.006835   5.731092   0.382381   0.401342
    29  H   -0.000055  -0.000707   0.002913   0.382381   0.504807  -0.020273
    30  H    0.000037   0.003650  -0.000411   0.401342  -0.020273   0.510056
    31  H   -0.000259  -0.000096   0.000121   0.445777  -0.023918  -0.028986
             31
     1  C   -0.000967
     2  C    0.005348
     3  C   -0.146038
     4  C    0.016182
     5  C   -0.002125
     6  C   -0.000574
     7  H    0.000076
     8  H    0.001997
     9  H   -0.122051
    10  H    0.000277
    11  H    0.000000
    12  C    0.000054
    13  O   -0.000218
    14  H   -0.000025
    15  C    0.006310
    16  H    0.000074
    17  C   -0.010985
    18  O   -0.000122
    19  C    0.004986
    20  C    0.033691
    21  H   -0.002822
    22  H   -0.000731
    23  H    0.026317
    24  C    0.006257
    25  H   -0.000259
    26  H   -0.000096
    27  H    0.000121
    28  C    0.445777
    29  H   -0.023918
    30  H   -0.028986
    31  H    0.549025
 Mulliken atomic charges:
              1
     1  C   -0.093136
     2  C   -0.219785
     3  C   -0.307246
     4  C    0.146604
     5  C   -0.114178
     6  C   -0.227120
     7  H    0.167755
     8  H    0.158600
     9  H    0.282447
    10  H    0.154358
    11  H    0.163432
    12  C    0.393815
    13  O   -0.728516
    14  H    0.403168
    15  C   -0.346562
    16  H    0.193411
    17  C    0.622941
    18  O   -0.501593
    19  C   -0.366820
    20  C   -0.603161
    21  H    0.191287
    22  H    0.242346
    23  H    0.153560
    24  C   -0.411817
    25  H    0.198052
    26  H    0.202561
    27  H    0.167620
    28  C   -0.534164
    29  H    0.193148
    30  H    0.175566
    31  H    0.243423
 Sum of Mulliken atomic charges =   0.00000
 Mulliken charges with hydrogens summed into heavy atoms:
              1
     1  C    0.074619
     2  C   -0.061185
     3  C   -0.024799
     4  C    0.146604
     5  C    0.040180
     6  C   -0.063688
    12  C    0.393815
    13  O   -0.325347
    15  C   -0.153151
    17  C    0.622941
    18  O   -0.501593
    19  C   -0.366820
    20  C   -0.015968
    24  C    0.156417
    28  C    0.077975
 Sum of Mulliken charges with hydrogens summed into heavy atoms =   0.00000
 Electronic spatial extent (au):  <R**2>=           3112.4232
 Charge=              0.0000 electrons
 Dipole moment (field-independent basis, Debye):
    X=             -3.7199    Y=             -4.2971    Z=              0.2504  Tot=              5.6890
 Quadrupole moment (field-independent basis, Debye-Ang):
   XX=            -96.2322   YY=            -94.2758   ZZ=            -96.4461
   XY=            -11.9637   XZ=              2.6855   YZ=              1.2886
 Traceless Quadrupole moment (field-independent basis, Debye-Ang):
   XX=             -0.5808   YY=              1.3756   ZZ=             -0.7948
   XY=            -11.9637   XZ=              2.6855   YZ=              1.2886
 Octapole moment (field-independent basis, Debye-Ang**2):
  XXX=            -74.8583  YYY=            -30.7412  ZZZ=              0.2168  XYY=            -19.8157
  XXY=            -11.1745  XXZ=             10.9936  XZZ=             15.0424  YZZ=              4.9129
  YYZ=             -0.7644  XYZ=              0.8707
 Hexadecapole moment (field-independent basis, Debye-Ang**3):
 XXXX=          -2610.8112 YYYY=          -1401.3468 ZZZZ=           -287.2408 XXXY=           -138.5105
 XXXZ=             32.0721 YYYX=            -19.0954 YYYZ=             -1.4778 ZZZX=             -5.9857
 ZZZY=              1.6826 XXYY=           -603.9528 XXZZ=           -502.8884 YYZZ=           -287.9537
 XXYZ=             20.3519 YYXZ=              0.2166 ZZXY=            -12.7908
 N-N= 1.023637797061D+03 E-N=-3.567500812546D+03  KE= 6.521793726428D+02
 Calling FoFJK, ICntrl=      2127 FMM=F ISym2X=0 I1Cent= 0 IOpClX= 0 NMat=1 NMatS=1 NMatT=0.
 ***** Axes restored to original set *****
 -------------------------------------------------------------------
 Center     Atomic                   Forces (Hartrees/Bohr)
 Number     Number              X              Y              Z
 -------------------------------------------------------------------
      1        6           0.012162369   -0.018596528   -0.002669518
      2        6          -0.043667139   -0.019507930    0.018562538
      3        6          -0.147748181    0.075990779    0.179854543
      4        6           0.004619751    0.058219889    0.007136674
      5        6          -0.015549794   -0.004064784   -0.006240971
      6        6          -0.018770404    0.022455134   -0.001017740
      7        1           0.013480439    0.014814023   -0.000138978
      8        1          -0.009487831    0.019164791    0.002182699
      9        1          -0.110289980    0.075119128    0.162890681
     10        1           0.000556253   -0.020925358    0.000015610
     11        1           0.020139576   -0.003871108   -0.000116973
     12        6          -0.013437488   -0.052221448    0.011899364
     13        8           0.001096240   -0.050921606   -0.008892761
     14        1           0.016519448    0.006837162   -0.001043942
     15        6           0.028822790    0.032751952   -0.009381157
     16        1           0.010711176    0.001680598    0.004142461
     17        6          -0.000569471    0.016089837   -0.012127961
     18        8          -0.061169398   -0.003580046    0.016294176
     19        6           0.050867536    0.005052694    0.005982266
     20        6           0.140945873   -0.100752960   -0.199780202
     21        1           0.015237698   -0.010544985   -0.012770291
     22        1          -0.004964193    0.001585867   -0.001427301
     23        1           0.058168948   -0.043806181   -0.224079859
     24        6          -0.013364565    0.006773536   -0.004143023
     25        1           0.005586753   -0.001513342   -0.003688877
     26        1           0.004746481    0.000927523    0.002196953
     27        1          -0.001185728   -0.008590532    0.001956606
     28        6           0.031626141    0.012950731    0.031883203
     29        1          -0.002954035   -0.006934434    0.003074456
     30        1           0.008696401   -0.002215440    0.006218445
     31        1           0.019174334   -0.002366962    0.033228879
 -------------------------------------------------------------------
 Cartesian Forces:  Max     0.224079859 RMS     0.052796067

 GradGradGradGradGradGradGradGradGradGradGradGradGradGradGradGradGradGrad
 Berny optimization.
 Internal  Forces:  Max     0.232013637 RMS     0.032005688
 Search for a local minimum.
 Step number   1 out of a maximum of  186
 All quantities printed in internal units (Hartrees-Bohrs-Radians)
 Mixed Optimization -- RFO/linear search
 Second derivative matrix not updated -- first step.
     Eigenvalues ---    0.00237   0.00237   0.00237   0.00506   0.00578
     Eigenvalues ---    0.01158   0.01295   0.01366   0.01519   0.01708
     Eigenvalues ---    0.01926   0.01961   0.02154   0.02155   0.02155
     Eigenvalues ---    0.02156   0.02156   0.02157   0.02658   0.03154
     Eigenvalues ---    0.04332   0.04718   0.05085   0.05720   0.05720
     Eigenvalues ---    0.05720   0.05720   0.06123   0.06434   0.07706
     Eigenvalues ---    0.08759   0.10504   0.13295   0.13611   0.13694
     Eigenvalues ---    0.16000   0.16000   0.16000   0.16000   0.16000
     Eigenvalues ---    0.16000   0.16000   0.16000   0.16000   0.16000
     Eigenvalues ---    0.16000   0.16000   0.18040   0.19440   0.21713
     Eigenvalues ---    0.22000   0.23087   0.23564   0.25000   0.25000
     Eigenvalues ---    0.25142   0.27339   0.27941   0.28064   0.28519
     Eigenvalues ---    0.28519   0.28519   0.32091   0.33709   0.33720
     Eigenvalues ---    0.33725   0.33726   0.34140   0.37230   0.37230
     Eigenvalues ---    0.37230   0.37230   0.37230   0.37230   0.37230
     Eigenvalues ---    0.37230   0.37230   0.40357   0.40989   0.42054
     Eigenvalues ---    0.45736   0.46448   0.46466   0.46496   0.51900
     Eigenvalues ---    0.55473   0.802091000.000001000.000001000.00000
     Eigenvalues --- 1000.000001000.000001000.000001000.000001000.00000
     Eigenvalues --- 1000.000001000.000001000.000001000.000001000.00000
     Eigenvalues --- 1000.000001000.000001000.000001000.000001000.00000
     Eigenvalues --- 1000.000001000.000001000.000001000.000001000.00000
     Eigenvalues --- 1000.000001000.000001000.000001000.000001000.00000
     Eigenvalues --- 1000.000001000.000001000.000001000.000001000.00000
     Eigenvalues --- 1000.000001000.000001000.000001000.000001000.00000
     Eigenvalues --- 1000.000001000.000001000.000001000.000001000.00000
     Eigenvalues --- 1000.000001000.000001000.000001000.000001000.00000
     Eigenvalues --- 1000.000001000.000001000.000001000.000001000.00000
     Eigenvalues --- 1000.000001000.000001000.000001000.000001000.00000
     Eigenvalues --- 1000.000001000.000001000.000001000.000001000.00000
     Eigenvalues --- 1000.000001000.000001000.000001000.000001000.00000
     Eigenvalues --- 1000.000001000.000001000.000001000.000001000.00000
     Eigenvalues --- 1000.000001000.000001000.000001000.000001000.00000
     Eigenvalues --- 1000.000001000.000001000.000001000.000001000.00000
     Eigenvalues --- 1000.000001000.000001000.000001000.000001000.00000
     Eigenvalues --- 1000.000001000.000001000.000001000.000001000.00000
     Eigenvalues --- 1000.000001000.000001000.000001000.000001000.00000
     Eigenvalues --- 1000.00000
 RFO step:  Lambda=-3.32831273D-01 EMin= 2.36823989D-03
 Linear search not attempted -- first point.
 Maximum step size (   0.300) exceeded in Quadratic search.
    -- Step size scaled by   0.385
 Iteration  1 RMS(Cart)=  0.06913130 RMS(Int)=  0.00131079
 Iteration  2 RMS(Cart)=  0.00205046 RMS(Int)=  0.00022925
 Iteration  3 RMS(Cart)=  0.00000288 RMS(Int)=  0.00022924
 Iteration  4 RMS(Cart)=  0.00000000 RMS(Int)=  0.00022924
 Variable       Old X    -DE/DX   Delta X   Delta X   Delta X     New X
                                 (Linear)    (Quad)   (Total)
    R1        2.63647  -0.01977   0.00000  -0.00970  -0.00972   2.62675
    R2        2.63584   0.00546   0.00000   0.00215   0.00214   2.63799
    R3        2.07796  -0.02001   0.00000  -0.01148  -0.01148   2.06648
    R4        2.63562   0.02304   0.00000   0.01143   0.01142   2.64705
    R5        2.07805  -0.02106   0.00000  -0.01209  -0.01209   2.06596
    R6        2.63697  -0.00916   0.00000  -0.00316  -0.00317   2.63380
    R7        2.07809   0.03599   0.00000   0.01611   0.01536   2.09345
    R8        2.02210   0.23201   0.00000   0.13665   0.13686   2.15896
    R9        2.63584   0.00578   0.00000   0.00295   0.00297   2.63881
   R10        2.91018  -0.01962   0.00000  -0.01320  -0.01295   2.89723
   R11        2.63643  -0.01549   0.00000  -0.00780  -0.00779   2.62864
   R12        2.07825  -0.02003   0.00000  -0.01150  -0.01150   2.06675
   R13        2.07795  -0.02051   0.00000  -0.01177  -0.01177   2.06618
   R14        2.30326   0.21957   0.00000   0.14246   0.14270   2.44597
   R15        2.70231  -0.04803   0.00000  -0.02487  -0.02487   2.67743
   R16        2.56096   0.01261   0.00000   0.00400   0.00425   2.56521
   R17        1.81414  -0.01636   0.00000  -0.00709  -0.00709   1.80705
   R18        2.02201   0.00580   0.00000   0.00316   0.00316   2.02517
   R19        2.91018  -0.02051   0.00000  -0.01447  -0.01433   2.89585
   R20        2.37803  -0.06278   0.00000  -0.02128  -0.02128   2.35675
   R21        2.91018  -0.01195   0.00000  -0.00697  -0.00709   2.90309
   R22        2.91018   0.09317   0.00000   0.05795   0.05767   2.96785
   R23        2.91018  -0.00160   0.00000  -0.00100  -0.00100   2.90918
   R24        2.91018   0.04950   0.00000   0.03081   0.03081   2.94098
   R25        2.02201   0.01625   0.00000   0.00887   0.00887   2.03087
   R26        2.02201  -0.00061   0.00000  -0.00033  -0.00033   2.02167
   R27        2.02201   0.06641   0.00000   0.04085   0.04084   2.06285
   R28        2.02201   0.00538   0.00000   0.00293   0.00293   2.02494
   R29        2.02201   0.00505   0.00000   0.00276   0.00276   2.02476
   R30        2.02201   0.00880   0.00000   0.00480   0.00480   2.02681
   R31        2.02201   0.00796   0.00000   0.00434   0.00434   2.02635
   R32        2.02201   0.00922   0.00000   0.00503   0.00503   2.02704
   R33        2.02201  -0.01489   0.00000  -0.00812  -0.00812   2.01388
    A1        2.09437   0.00562   0.00000   0.00356   0.00354   2.09791
    A2        2.09435  -0.00301   0.00000  -0.00194  -0.00193   2.09242
    A3        2.09447  -0.00261   0.00000  -0.00162  -0.00161   2.09286
    A4        2.09455  -0.00420   0.00000  -0.00208  -0.00210   2.09244
    A5        2.09406  -0.00115   0.00000  -0.00149  -0.00148   2.09258
    A6        2.09458   0.00535   0.00000   0.00357   0.00359   2.09816
    A7        2.09429  -0.00206   0.00000  -0.00136  -0.00128   2.09301
    A8        2.09462   0.03491   0.00000   0.02744   0.02710   2.12171
    A9        1.80645   0.02961   0.00000   0.02160   0.02198   1.82843
   A10        2.09427  -0.03285   0.00000  -0.02608  -0.02584   2.06843
   A11        1.90610  -0.01350   0.00000  -0.00900  -0.00944   1.89665
   A12        0.97314  -0.01144   0.00000  -0.00541  -0.00579   0.96735
   A13        2.09429  -0.00117   0.00000  -0.00117  -0.00127   2.09302
   A14        2.09407  -0.02934   0.00000  -0.01635  -0.01613   2.07794
   A15        2.09483   0.03052   0.00000   0.01752   0.01739   2.11221
   A16        2.09448   0.00304   0.00000   0.00249   0.00252   2.09700
   A17        2.09459   0.00472   0.00000   0.00362   0.00361   2.09820
   A18        2.09411  -0.00776   0.00000  -0.00611  -0.00613   2.08799
   A19        2.09440  -0.00122   0.00000  -0.00143  -0.00142   2.09297
   A20        2.09453   0.00094   0.00000   0.00098   0.00097   2.09550
   A21        2.09426   0.00028   0.00000   0.00046   0.00045   2.09471
   A22        1.97488   0.04323   0.00000   0.02572   0.02557   2.00045
   A23        2.09241  -0.02077   0.00000  -0.01402  -0.01429   2.07812
   A24        2.09836   0.06526   0.00000   0.04369   0.04406   2.14241
   A25        2.09241  -0.04449   0.00000  -0.02967  -0.02993   2.06248
   A26        1.91114   0.01313   0.00000   0.01025   0.01025   1.92138
   A27        1.88976   0.00653   0.00000   0.00518   0.00505   1.89481
   A28        2.50961   0.00324   0.00000   0.00236   0.00257   2.51218
   A29        1.88382  -0.00977   0.00000  -0.00754  -0.00766   1.87616
   A30        2.09836  -0.01777   0.00000  -0.01331  -0.01319   2.08517
   A31        2.09241   0.01487   0.00000   0.01298   0.01272   2.10514
   A32        2.09241   0.00290   0.00000   0.00033   0.00045   2.09287
   A33        1.91063  -0.03230   0.00000  -0.02551  -0.02542   1.88521
   A34        1.91063   0.03836   0.00000   0.02600   0.02562   1.93626
   A35        1.91063  -0.01920   0.00000  -0.01327  -0.01307   1.89756
   A36        1.91063  -0.02172   0.00000  -0.01702  -0.01644   1.89419
   A37        1.91063   0.07718   0.00000   0.06471   0.06467   1.97530
   A38        1.91063  -0.04232   0.00000  -0.03491  -0.03466   1.87597
   A39        1.08605   0.05833   0.00000   0.05207   0.05131   1.13736
   A40        2.53207   0.00296   0.00000   0.00231   0.00213   2.53420
   A41        1.83346  -0.00943   0.00000  -0.00612  -0.00592   1.82754
   A42        0.91019  -0.02224   0.00000  -0.01722  -0.01670   0.89349
   A43        1.91063  -0.03466   0.00000  -0.03181  -0.03159   1.87904
   A44        1.91063   0.00025   0.00000   0.00287   0.00288   1.91352
   A45        1.91063   0.02472   0.00000   0.02597   0.02580   1.93643
   A46        1.91063   0.00347   0.00000   0.00109   0.00088   1.91151
   A47        1.91063  -0.00037   0.00000  -0.00009   0.00014   1.91078
   A48        1.91063   0.00659   0.00000   0.00197   0.00157   1.91220
   A49        2.26155  -0.00163   0.00000   0.00577   0.00583   2.26737
   A50        1.91063   0.00537   0.00000   0.00423   0.00423   1.91486
   A51        1.91063   0.00062   0.00000   0.00042   0.00042   1.91105
   A52        1.91063   0.00082   0.00000   0.00067   0.00067   1.91130
   A53        1.91063  -0.00337   0.00000  -0.00269  -0.00269   1.90795
   A54        1.91063  -0.00231   0.00000  -0.00167  -0.00167   1.90896
   A55        1.91063  -0.00115   0.00000  -0.00097  -0.00097   1.90967
   A56        1.91063  -0.00381   0.00000  -0.00293  -0.00303   1.90760
   A57        1.91063  -0.01078   0.00000  -0.00918  -0.00918   1.90145
   A58        1.91063   0.04730   0.00000   0.03764   0.03759   1.94822
   A59        1.91063  -0.00159   0.00000  -0.00270  -0.00275   1.90788
   A60        1.91063  -0.01233   0.00000  -0.00808  -0.00822   1.90241
   A61        1.91063  -0.01879   0.00000  -0.01475  -0.01471   1.89593
    D1        0.00056  -0.00144   0.00000  -0.00195  -0.00191  -0.00134
    D2        3.14078  -0.00203   0.00000  -0.00250  -0.00247   3.13830
    D3       -3.14112  -0.00027   0.00000  -0.00047  -0.00046  -3.14158
    D4       -0.00091  -0.00086   0.00000  -0.00103  -0.00102  -0.00193
    D5        0.00026  -0.00050   0.00000  -0.00064  -0.00063  -0.00037
    D6        3.14140  -0.00001   0.00000   0.00021   0.00018   3.14158
    D7       -3.14124  -0.00167   0.00000  -0.00211  -0.00208   3.13986
    D8       -0.00010  -0.00118   0.00000  -0.00127  -0.00127  -0.00137
    D9       -0.00099   0.00374   0.00000   0.00465   0.00461   0.00362
   D10        3.14093  -0.00145   0.00000  -0.00359  -0.00363   3.13729
   D11       -2.12960  -0.00167   0.00000  -0.00051  -0.00042  -2.13002
   D12       -3.14120   0.00434   0.00000   0.00521   0.00518  -3.13602
   D13        0.00072  -0.00085   0.00000  -0.00303  -0.00307  -0.00235
   D14        1.01337  -0.00107   0.00000   0.00005   0.00015   1.01352
   D15        0.00060  -0.00411   0.00000  -0.00477  -0.00477  -0.00417
   D16       -3.14153   0.00178   0.00000   0.00040   0.00049  -3.14104
   D17       -3.14132   0.00109   0.00000   0.00348   0.00324  -3.13809
   D18       -0.00026   0.00698   0.00000   0.00865   0.00850   0.00823
   D19        2.07960   0.02316   0.00000   0.01595   0.01613   2.09574
   D20       -1.06252   0.02905   0.00000   0.02112   0.02140  -1.04112
   D21        1.13248   0.02464   0.00000   0.02222   0.02227   1.15475
   D22       -2.00879   0.01945   0.00000   0.01397   0.01413  -1.99466
   D23       -0.37124   0.01665   0.00000   0.01597   0.01547  -0.35577
   D24       -1.53200  -0.02431   0.00000  -0.02302  -0.02322  -1.55522
   D25        2.50127  -0.03284   0.00000  -0.02993  -0.03019   2.47108
   D26        0.51547  -0.00007   0.00000  -0.00318  -0.00397   0.51150
   D27        0.00023   0.00217   0.00000   0.00219   0.00224   0.00246
   D28       -3.14158   0.00297   0.00000   0.00295   0.00301  -3.13858
   D29       -3.14083  -0.00370   0.00000  -0.00297  -0.00312   3.13923
   D30        0.00054  -0.00290   0.00000  -0.00222  -0.00235  -0.00181
   D31       -2.99533   0.00324   0.00000   0.00357   0.00313  -2.99221
   D32        0.14626   0.02283   0.00000   0.02318   0.02308   0.16934
   D33        0.14573   0.00912   0.00000   0.00874   0.00845   0.15417
   D34       -2.99587   0.02870   0.00000   0.02835   0.02839  -2.96747
   D35       -0.00066   0.00013   0.00000   0.00052   0.00047  -0.00018
   D36        3.14138  -0.00036   0.00000  -0.00033  -0.00034   3.14105
   D37        3.14116  -0.00067   0.00000  -0.00024  -0.00030   3.14086
   D38        0.00001  -0.00116   0.00000  -0.00109  -0.00111  -0.00110
   D39        3.04981  -0.00632   0.00000  -0.01239  -0.01247   3.03734
   D40        1.57538  -0.02644   0.00000  -0.02893  -0.02865   1.54673
   D41       -1.41144   0.00675   0.00000   0.00121   0.00080  -1.41064
   D42        0.38958   0.01996   0.00000   0.00659   0.00582   0.39540
   D43        0.00014   0.01048   0.00000   0.01057   0.01032   0.01046
   D44       -3.14145  -0.00903   0.00000  -0.00896  -0.00871   3.13302
   D45        2.97806  -0.01699   0.00000  -0.01710  -0.01752   2.96053
   D46       -0.16354  -0.00714   0.00000  -0.00673  -0.00717  -0.17071
   D47       -0.16354   0.00260   0.00000   0.00250   0.00226  -0.16128
   D48        2.97806   0.01244   0.00000   0.01288   0.01261   2.99067
   D49        3.06410  -0.02431   0.00000  -0.02722  -0.02740   3.03670
   D50       -0.07749  -0.02132   0.00000  -0.02245  -0.02282  -0.10031
   D51       -0.07749  -0.01448   0.00000  -0.01686  -0.01711  -0.09460
   D52        3.06410  -0.01150   0.00000  -0.01210  -0.01252   3.05158
   D53        1.04766   0.01154   0.00000   0.00455   0.00447   1.05213
   D54       -3.14113  -0.01136   0.00000  -0.01599  -0.01592   3.12614
   D55       -1.04673  -0.05145   0.00000  -0.05095  -0.05094  -1.09768
   D56       -2.09393   0.01452   0.00000   0.00930   0.00908  -2.08486
   D57        0.00046  -0.00838   0.00000  -0.01124  -0.01131  -0.01085
   D58        2.09486  -0.04847   0.00000  -0.04620  -0.04633   2.04852
   D59       -1.50290   0.01032   0.00000   0.00773   0.00843  -1.49447
   D60        0.98970   0.02136   0.00000   0.01756   0.01763   1.00733
   D61        3.08410   0.00453   0.00000   0.00117   0.00147   3.08557
   D62       -1.10469   0.02790   0.00000   0.02124   0.02151  -1.08318
   D63        2.68589  -0.00357   0.00000   0.00193   0.00225   2.68814
   D64       -1.10469   0.00746   0.00000   0.01176   0.01144  -1.09325
   D65        0.98970  -0.00936   0.00000  -0.00463  -0.00471   0.98499
   D66        3.08410   0.01400   0.00000   0.01544   0.01533   3.09942
   D67        0.59150   0.01429   0.00000   0.01548   0.01582   0.60732
   D68        3.08410   0.02533   0.00000   0.02531   0.02502   3.10911
   D69       -1.10469   0.00850   0.00000   0.00892   0.00886  -1.09583
   D70        0.98970   0.03187   0.00000   0.02899   0.02890   1.01860
   D71       -1.05092   0.00169   0.00000   0.00189   0.00184  -1.04909
   D72        1.04347   0.00124   0.00000   0.00145   0.00139   1.04486
   D73        3.13787   0.00072   0.00000   0.00094   0.00088   3.13875
   D74        1.04347  -0.02769   0.00000  -0.02385  -0.02397   1.01950
   D75        3.13787  -0.02813   0.00000  -0.02429  -0.02442   3.11345
   D76       -1.05092  -0.02865   0.00000  -0.02481  -0.02493  -1.07586
   D77        3.13787   0.02763   0.00000   0.02360   0.02379  -3.12153
   D78       -1.05092   0.02718   0.00000   0.02316   0.02334  -1.02758
   D79        1.04347   0.02666   0.00000   0.02265   0.02283   1.06630
   D80       -3.09303  -0.00198   0.00000   0.00094   0.00086  -3.09217
   D81       -0.99864  -0.01285   0.00000  -0.00978  -0.00986  -1.00850
   D82        1.09576  -0.01350   0.00000  -0.01042  -0.01059   1.08517
   D83        1.09576   0.00208   0.00000   0.00069   0.00051   1.09627
   D84       -3.09303  -0.00879   0.00000  -0.01003  -0.01021  -3.10324
   D85       -0.99864  -0.00945   0.00000  -0.01068  -0.01093  -1.00957
   D86       -0.99864   0.00733   0.00000   0.00329   0.00362  -0.99501
   D87        1.09576  -0.00354   0.00000  -0.00744  -0.00710   1.08866
   D88       -3.09303  -0.00419   0.00000  -0.00808  -0.00782  -3.10085
   D89       -0.48433   0.03611   0.00000   0.02631   0.02577  -0.45857
   D90       -0.93382  -0.00720   0.00000  -0.00887  -0.00905  -0.94287
   D91       -3.02821   0.02034   0.00000   0.01424   0.01389  -3.01432
   D92        1.16058   0.01228   0.00000   0.01176   0.01176   1.17234
         Item               Value     Threshold  Converged?
[...]
 Alpha virt. eigenvalues --    0.86669   0.87169   0.87753   0.89251   0.89491
 Alpha virt. eigenvalues --    0.90802   0.91526   0.92288   0.92646   0.95820
 Alpha virt. eigenvalues --    0.96927   0.98849   1.01373   1.04782   1.06739
 Alpha virt. eigenvalues --    1.08445   1.10336   1.11372   1.13426   1.15703
 Alpha virt. eigenvalues --    1.16128   1.16884   1.18808   1.20169   1.22306
 Alpha virt. eigenvalues --    1.23818   1.26929   1.28865   1.29954   1.33304
 Alpha virt. eigenvalues --    1.36034   1.42943   1.45545   1.50537   1.60752
 Alpha virt. eigenvalues --    1.87203   1.97417   2.49654   2.56352   2.59390
 Alpha virt. eigenvalues --    2.60524   2.60722   2.61732   2.62805   2.63198
 Alpha virt. eigenvalues --    2.65896   2.67386   2.67785   2.68307   2.69672
 Alpha virt. eigenvalues --    2.71292   2.74209   2.87023   2.92912   2.95249
 Alpha virt. eigenvalues --    2.96655   2.99052   3.02344   3.04233   3.05893
 Alpha virt. eigenvalues --    3.10855   3.14952   3.15800   3.18429   3.20117
 Alpha virt. eigenvalues --    3.22621   3.26594   3.27264   3.28367   3.29993
 Alpha virt. eigenvalues --    3.31087   3.33519   3.34261   3.36701   3.37564
 Alpha virt. eigenvalues --    3.39306   3.43201   3.44152   3.46499   3.49929
 Alpha virt. eigenvalues --    3.52954   3.54623   3.56435   3.57765   3.59316
 Alpha virt. eigenvalues --    3.61272   3.65378   3.66179   3.70728   3.71278
 Alpha virt. eigenvalues --    3.75504   3.89127   5.37299   5.46505   5.46628
 Alpha virt. eigenvalues --    5.54706   5.66730   5.66975  24.25627  24.39849
 Alpha virt. eigenvalues --   24.50087  24.52556  24.55535  24.63278  24.67246
 Alpha virt. eigenvalues --   24.72100  24.76262  24.78656  24.79413  24.88064
 Alpha virt. eigenvalues --   25.04927  51.54188  51.63413
          Condensed to atoms (all electrons):
              1          2          3          4          5          6
     1  C    5.003281   0.494233  -0.089381  -0.013074  -0.083907   0.487666
     2  C    0.494233   5.053548   0.467985  -0.072450  -0.039619  -0.070079
     3  C   -0.089381   0.467985   5.133405   0.431360  -0.064053  -0.036963
     4  C   -0.013074  -0.072450   0.431360   5.562580   0.444831  -0.056257
     5  C   -0.083907  -0.039619  -0.064053   0.444831   4.938874   0.470717
     6  C    0.487666  -0.070079  -0.036963  -0.056257   0.470717   5.064910
     7  H    0.400415  -0.043054   0.008024  -0.001718   0.007721  -0.041631
     8  H   -0.039137   0.399752  -0.040109   0.006148  -0.000349   0.005903
     9  H    0.004611  -0.027057   0.395188  -0.051466   0.004060  -0.000085
    10  H    0.005186  -0.000650   0.005160  -0.041273   0.393174  -0.033601
    11  H   -0.042545   0.006244  -0.000414   0.006820  -0.038189   0.400921
    12  C    0.002760   0.005165  -0.065382   0.205132  -0.022050   0.005424
    13  O    0.000064   0.000540   0.009864  -0.155370   0.003379  -0.000327
    14  H   -0.000042  -0.000889  -0.000627   0.009422   0.001328  -0.000214
    15  C    0.000197  -0.000885  -0.000957  -0.170231   0.011666   0.000018
    16  H   -0.000004   0.000021  -0.000274   0.010230  -0.000463   0.000028
    17  C   -0.000012   0.000059   0.000548  -0.001732  -0.003005  -0.000014
    18  O    0.000008   0.000015   0.000065  -0.009397  -0.007921  -0.001137
    19  C    0.000000   0.000001  -0.000010  -0.000739   0.000001  -0.000003
    20  C    0.000000   0.000000   0.000002  -0.000027  -0.000010   0.000000
    21  H    0.000000   0.000000   0.000001  -0.000001  -0.000005   0.000000
    22  H    0.000000   0.000000   0.000000   0.000004   0.000000   0.000000
    23  H    0.000000   0.000000  -0.000002  -0.000012   0.000003   0.000000
    24  C    0.000000   0.000000   0.000000   0.000005   0.000012   0.000000
    25  H    0.000000   0.000000   0.000001  -0.000002   0.000010   0.000001
    26  H    0.000000   0.000000   0.000000   0.000003  -0.000008  -0.000001
    27  H    0.000000   0.000000   0.000000   0.000001   0.000000   0.000000
    28  C    0.000000   0.000000   0.000000  -0.000083   0.000018   0.000000
    29  H    0.000000   0.000000   0.000000   0.000001   0.000000   0.000000
    30  H    0.000000   0.000000   0.000000  -0.000002  -0.000002   0.000000
    31  H    0.000000   0.000000   0.000000  -0.000046   0.000008   0.000000
              7          8          9         10         11         12
     1  C    0.400415  -0.039137   0.004611   0.005186  -0.042545   0.002760
     2  C   -0.043054   0.399752  -0.027057  -0.000650   0.006244   0.005165
     3  C    0.008024  -0.040109   0.395188   0.005160  -0.000414  -0.065382
     4  C   -0.001718   0.006148  -0.051466  -0.041273   0.006820   0.205132
     5  C    0.007721  -0.000349   0.004060   0.393174  -0.038189  -0.022050
     6  C   -0.041631   0.005903  -0.000085  -0.033601   0.400921   0.005424
     7  H    0.509435  -0.004380  -0.000167  -0.000123  -0.004514  -0.000053
     8  H   -0.004380   0.508636  -0.004026   0.000014  -0.000209  -0.000446
     9  H   -0.000167  -0.004026   0.479855  -0.000211   0.000023   0.001087
    10  H   -0.000123   0.000014  -0.000211   0.463671  -0.004215  -0.004004
    11  H   -0.004514  -0.000209   0.000023  -0.004215   0.506460  -0.000390
    12  C   -0.000053  -0.000446   0.001087  -0.004004  -0.000390   4.960051
    13  O    0.000000  -0.000016   0.005155   0.000173  -0.000001   0.226267
    14  H    0.000000   0.000000   0.000528   0.000074  -0.000001  -0.036585
    15  C    0.000000   0.000002   0.000666   0.000903   0.000003   0.359339
    16  H    0.000000   0.000000  -0.000076  -0.000123   0.000000  -0.005038
    17  C   -0.000001  -0.000001  -0.000001  -0.000609  -0.000008  -0.035785
    18  O    0.000000   0.000000   0.000008   0.011945  -0.000086   0.012026
    19  C    0.000000   0.000000   0.000001   0.000230  -0.000001   0.009306
    20  C    0.000000   0.000000   0.000000  -0.000003   0.000000   0.000360
    21  H    0.000000   0.000000  -0.000002  -0.000005   0.000000  -0.000001
    22  H    0.000000   0.000000   0.000000   0.000001   0.000000   0.000065
    23  H    0.000000   0.000000   0.000002  -0.000001   0.000000   0.000575
    24  C    0.000000   0.000000   0.000000  -0.000021   0.000000  -0.000362
    25  H    0.000000   0.000000   0.000000  -0.000009   0.000000  -0.000050
    26  H    0.000000   0.000000   0.000000   0.000016   0.000000  -0.000048
    27  H    0.000000   0.000000   0.000000   0.000001   0.000000   0.000006
    28  C    0.000000   0.000000   0.000000  -0.000091   0.000000  -0.000165
    29  H    0.000000   0.000000   0.000000   0.000003   0.000000   0.000018
    30  H    0.000000   0.000000   0.000000   0.000007   0.000000  -0.000144
    31  H    0.000000   0.000000   0.000000   0.000002   0.000000   0.000104
             13         14         15         16         17         18
     1  C    0.000064  -0.000042   0.000197  -0.000004  -0.000012   0.000008
     2  C    0.000540  -0.000889  -0.000885   0.000021   0.000059   0.000015
     3  C    0.009864  -0.000627  -0.000957  -0.000274   0.000548   0.000065
     4  C   -0.155370   0.009422  -0.170231   0.010230  -0.001732  -0.009397
     5  C    0.003379   0.001328   0.011666  -0.000463  -0.003005  -0.007921
     6  C   -0.000327  -0.000214   0.000018   0.000028  -0.000014  -0.001137
     7  H    0.000000   0.000000   0.000000   0.000000  -0.000001   0.000000
     8  H   -0.000016   0.000000   0.000002   0.000000  -0.000001   0.000000
     9  H    0.005155   0.000528   0.000666  -0.000076  -0.000001   0.000008
    10  H    0.000173   0.000074   0.000903  -0.000123  -0.000609   0.011945
    11  H   -0.000001  -0.000001   0.000003   0.000000  -0.000008  -0.000086
    12  C    0.226267  -0.036585   0.359339  -0.005038  -0.035785   0.012026
    13  O    8.431661   0.259319  -0.052436   0.003232   0.003940   0.000017
    14  H    0.259319   0.345635   0.008003  -0.000190  -0.000157   0.000053
    15  C   -0.052436   0.008003   5.993608   0.355074   0.129945  -0.144686
    16  H    0.003232  -0.000190   0.355074   0.481369  -0.039656   0.002340
    17  C    0.003940  -0.000157   0.129945  -0.039656   5.035158   0.585999
    18  O    0.000017   0.000053  -0.144686   0.002340   0.585999   8.187010
    19  C   -0.000162   0.000029  -0.195758   0.003863   0.040727  -0.133135
    20  C    0.000017  -0.000004   0.006123  -0.002075  -0.092679   0.002580
    21  H   -0.000002   0.000000  -0.000770   0.000035  -0.002047   0.000705
    22  H   -0.000001   0.000000  -0.000462   0.000101   0.008094  -0.000275
    23  H   -0.000037  -0.000001   0.003966   0.000469  -0.007440  -0.000012
    24  C    0.000001  -0.000001   0.012326  -0.000048  -0.083729   0.012642
    25  H    0.000000   0.000000   0.000213  -0.000045  -0.005277   0.003822
    26  H    0.000000   0.000000   0.000547  -0.000032  -0.005394   0.004595
    27  H    0.000000   0.000000  -0.000400   0.000009   0.013024   0.000170
    28  C    0.000007  -0.000002   0.007590  -0.002439  -0.097348   0.002302
    29  H   -0.000001   0.000000  -0.000561   0.000141   0.008072  -0.000278
    30  H    0.000001   0.000000  -0.001001   0.000118  -0.000913   0.001064
    31  H   -0.000099  -0.000001   0.004817   0.000848  -0.007356  -0.000031
             19         20         21         22         23         24
     1  C    0.000000   0.000000   0.000000   0.000000   0.000000   0.000000
     2  C    0.000001   0.000000   0.000000   0.000000   0.000000   0.000000
     3  C   -0.000010   0.000002   0.000001   0.000000  -0.000002   0.000000
     4  C   -0.000739  -0.000027  -0.000001   0.000004  -0.000012   0.000005
     5  C    0.000001  -0.000010  -0.000005   0.000000   0.000003   0.000012
     6  C   -0.000003   0.000000   0.000000   0.000000   0.000000   0.000000
     7  H    0.000000   0.000000   0.000000   0.000000   0.000000   0.000000
     8  H    0.000000   0.000000   0.000000   0.000000   0.000000   0.000000
     9  H    0.000001   0.000000  -0.000002   0.000000   0.000002   0.000000
    10  H    0.000230  -0.000003  -0.000005   0.000001  -0.000001  -0.000021
    11  H   -0.000001   0.000000   0.000000   0.000000   0.000000   0.000000
    12  C    0.009306   0.000360  -0.000001   0.000065   0.000575  -0.000362
    13  O   -0.000162   0.000017  -0.000002  -0.000001  -0.000037   0.000001
    14  H    0.000029  -0.000004   0.000000   0.000000  -0.000001  -0.000001
    15  C   -0.195758   0.006123  -0.000770  -0.000462   0.003966   0.012326
    16  H    0.003863  -0.002075   0.000035   0.000101   0.000469  -0.000048
    17  C    0.040727  -0.092679  -0.002047   0.008094  -0.007440  -0.083729
    18  O   -0.133135   0.002580   0.000705  -0.000275  -0.000012   0.012642
    19  C    6.405654   0.192328  -0.045224  -0.041004  -0.037991   0.195077
    20  C    0.192328   5.401672   0.387119   0.385936   0.381890  -0.104401
    21  H   -0.045224   0.387119   0.527439  -0.028332  -0.026180  -0.002397
    22  H   -0.041004   0.385936  -0.028332   0.531972  -0.027042  -0.004016
    23  H   -0.037991   0.381890  -0.026180  -0.027042   0.531611   0.007147
    24  C    0.195077  -0.104401  -0.002397  -0.004016   0.007147   5.323266
    25  H   -0.040132  -0.003453   0.002975  -0.000398  -0.000096   0.390549
    26  H   -0.040157   0.008153  -0.000196  -0.000075  -0.000305   0.389965
    27  H   -0.056092  -0.005974  -0.000384   0.002442  -0.000074   0.391715
    28  C    0.199390  -0.102674   0.008335  -0.006005  -0.003088  -0.103869
    29  H   -0.040795  -0.005913  -0.000194   0.003747  -0.000125  -0.003832
    30  H   -0.046344   0.008389  -0.000302  -0.000194  -0.000178  -0.002049
    31  H   -0.038986  -0.003107  -0.000160  -0.000177   0.001971   0.007205
             25         26         27         28         29         30
     1  C    0.000000   0.000000   0.000000   0.000000   0.000000   0.000000
     2  C    0.000000   0.000000   0.000000   0.000000   0.000000   0.000000
     3  C    0.000001   0.000000   0.000000   0.000000   0.000000   0.000000
     4  C   -0.000002   0.000003   0.000001  -0.000083   0.000001  -0.000002
     5  C    0.000010  -0.000008   0.000000   0.000018   0.000000  -0.000002
     6  C    0.000001  -0.000001   0.000000   0.000000   0.000000   0.000000
     7  H    0.000000   0.000000   0.000000   0.000000   0.000000   0.000000
     8  H    0.000000   0.000000   0.000000   0.000000   0.000000   0.000000
     9  H    0.000000   0.000000   0.000000   0.000000   0.000000   0.000000
    10  H   -0.000009   0.000016   0.000001  -0.000091   0.000003   0.000007
    11  H    0.000000   0.000000   0.000000   0.000000   0.000000   0.000000
    12  C   -0.000050  -0.000048   0.000006  -0.000165   0.000018  -0.000144
    13  O    0.000000   0.000000   0.000000   0.000007  -0.000001   0.000001
    14  H    0.000000   0.000000   0.000000  -0.000002   0.000000   0.000000
    15  C    0.000213   0.000547  -0.000400   0.007590  -0.000561  -0.001001
    16  H   -0.000045  -0.000032   0.000009  -0.002439   0.000141   0.000118
    17  C   -0.005277  -0.005394   0.013024  -0.097348   0.008072  -0.000913
    18  O    0.003822   0.004595   0.000170   0.002302  -0.000278   0.001064
    19  C   -0.040132  -0.040157  -0.056092   0.199390  -0.040795  -0.046344
    20  C   -0.003453   0.008153  -0.005974  -0.102674  -0.005913   0.008389
    21  H    0.002975  -0.000196  -0.000384   0.008335  -0.000194  -0.000302
    22  H   -0.000398  -0.000075   0.002442  -0.006005   0.003747  -0.000194
    23  H   -0.000096  -0.000305  -0.000074  -0.003088  -0.000125  -0.000178
    24  C    0.390549   0.389965   0.391715  -0.103869  -0.003832  -0.002049
    25  H    0.516968  -0.023845  -0.030472   0.008189  -0.000057  -0.000209
    26  H   -0.023845   0.516399  -0.030913  -0.003398  -0.000371   0.003014
    27  H   -0.030472  -0.030913   0.564146  -0.005942   0.002496  -0.000412
    28  C    0.008189  -0.003398  -0.005942   5.405153   0.387152   0.386161
    29  H   -0.000057  -0.000371   0.002496   0.387152   0.527177  -0.027949
    30  H   -0.000209   0.003014  -0.000412   0.386161  -0.027949   0.527445
    31  H   -0.000300  -0.000095  -0.000107   0.381295  -0.026876  -0.026475
             31
     1  C    0.000000
     2  C    0.000000
     3  C    0.000000
     4  C   -0.000046
     5  C    0.000008
     6  C    0.000000
     7  H    0.000000
     8  H    0.000000
     9  H    0.000000
    10  H    0.000002
    11  H    0.000000
    12  C    0.000104
    13  O   -0.000099
    14  H   -0.000001
    15  C    0.004817
    16  H    0.000848
    17  C   -0.007356
    18  O   -0.000031
    19  C   -0.038986
    20  C   -0.003107
    21  H   -0.000160
    22  H   -0.000177
    23  H    0.001971
    24  C    0.007205
    25  H   -0.000300
    26  H   -0.000095
    27  H   -0.000107
    28  C    0.381295
    29  H   -0.026876
    30  H   -0.026475
    31  H    0.535124
 Mulliken atomic charges:
              1
     1  C   -0.130319
     2  C   -0.172879
     3  C   -0.153430
     4  C   -0.102658
     5  C   -0.016220
     6  C   -0.195275
     7  H    0.170047
     8  H    0.168219
     9  H    0.191907
    10  H    0.204381
    11  H    0.170101
    12  C    0.382819
    13  O   -0.735186
    14  H    0.414322
    15  C   -0.326856
    16  H    0.192584
    17  C    0.557598
    18  O   -0.530404
    19  C   -0.330075
    20  C   -0.454247
    21  H    0.179593
    22  H    0.175619
    23  H    0.174950
    24  C   -0.425186
    25  H    0.181616
    26  H    0.182147
    27  H    0.156760
    28  C   -0.460487
    29  H    0.178144
    30  H    0.179972
    31  H    0.172443
 Sum of Mulliken atomic charges =   0.00000
 Mulliken charges with hydrogens summed into heavy atoms:
              1
     1  C    0.039728
     2  C   -0.004660
     3  C    0.038477
     4  C   -0.102658
     5  C    0.188160
     6  C   -0.025174
    12  C    0.382819
    13  O   -0.320864
    15  C   -0.134272
    17  C    0.557598
    18  O   -0.530404
    19  C   -0.330075
    20  C    0.075915
    24  C    0.095337
    28  C    0.070072
 Sum of Mulliken charges with hydrogens summed into heavy atoms =   0.00000
 Electronic spatial extent (au):  <R**2>=           3956.2596
 Charge=              0.0000 electrons
 Dipole moment (field-independent basis, Debye):
    X=             -1.4821    Y=              1.4100    Z=             -0.2216  Tot=              2.0576
 Quadrupole moment (field-independent basis, Debye-Ang):
   XX=            -74.9221   YY=            -95.7305   ZZ=            -90.4919
   XY=              0.4078   XZ=             -1.1604   YZ=              2.5471
 Traceless Quadrupole moment (field-independent basis, Debye-Ang):
   XX=             12.1260   YY=             -8.6823   ZZ=             -3.4437
   XY=              0.4078   XZ=             -1.1604   YZ=              2.5471
 Octapole moment (field-independent basis, Debye-Ang**2):
  XXX=            -16.5637  YYY=              0.5444  ZZZ=             -1.2120  XYY=            -21.8410
  XXY=              0.0883  XXZ=             13.1280  XZZ=             -0.7748  YZZ=              0.5850
  YYZ=             -6.3745  XYZ=             -4.1114
 Hexadecapole moment (field-independent basis, Debye-Ang**3):
 XXXX=          -3932.2527 YYYY=           -930.4805 ZZZZ=           -430.2239 XXXY=             40.5717
 XXXZ=            -75.9258 YYYX=            -21.5342 YYYZ=              4.9356 ZZZX=             -3.5997
 ZZZY=              4.4055 XXYY=           -774.1126 XXZZ=           -758.6395 YYZZ=           -212.9359
 XXYZ=              9.2429 YYXZ=             17.6348 ZZXY=            -18.1099
 N-N= 9.655277511221D+02 E-N=-3.453426546956D+03  KE= 6.516222698287D+02
 1|1|UNPC-DESKTOP-K2VF0AK|FOpt|RHF|6-311G|C13H16O2|MELIH|22-Nov-2024|0|
 |# opt hf/6-311g geom=connectivity||Title Card Required||0,1|C,-0.6059
 578183,3.9878572254,-1.1739379587|C,-0.6468073098,3.2239860573,-0.0167
 649741|C,0.4777690951,3.125497517,0.7842111251|C,1.661935774,3.7745930
 086,0.4286746155|C,1.6959084919,4.5321444029,-0.7361545921|C,0.5640622
 129,4.6412699736,-1.5283027369|H,-1.4750072882,4.0692316948,-1.7938673
 025|H,-1.5432380174,2.7075492258,0.2577976752|H,0.4453538532,2.5251205
 152,1.6708806238|H,2.6001968211,5.0148724706,-1.0275650672|H,0.6010127
 667,5.2280346879,-2.4224014216|C,2.8182064895,3.6808126281,1.352011743
 7|O,2.493485522,3.9119046404,2.6740604154|H,1.6591417472,4.340120092,2
 .7987500159|C,4.0942821131,3.3588156686,1.1356615552|H,4.7057321611,3.
 3620989176,2.0110741859|C,4.7239274953,2.9420136523,-0.1221196627|O,4.
 1779155942,3.0808913712,-1.2112196104|C,6.1218026258,2.3201497636,-0.0
 388599535|C,6.0858452893,1.0788604075,0.8763657671|H,5.3800755175,0.34
 62686204,0.5065740129|H,7.0643494844,0.6170897795,0.8995110736|H,5.811
 6738845,1.3251764594,1.8921156166|C,6.5794408553,1.9006834961,-1.44240
 70334|H,5.9055891148,1.17497906,-1.8728638179|H,6.6154747568,2.7465586
 895,-2.1120503861|H,7.568090043,1.4623220674,-1.3854913217|C,7.1115177
 671,3.3627092112,0.5248144144|H,8.1091760911,2.9437958555,0.536638816|
 H,7.1305806187,4.251665285,-0.0924136517|H,6.8675647982,3.6589453154,1
 .5351331044||Version=IA32W-G09RevA.02|State=1-A|HF=-651.1859407|RMSD=9
 .787e-009|RMSF=6.756e-006|Dipole=-0.5638626,0.227792,0.5343376|Quadrup
 ole=8.7045311,-2.2436795,-6.4608516,-1.9643815,0.3959604,-1.9709252|PG
 =C01 [X(C13H16O2)]||@


 SUCCESS IS COUNTED SWEETEST
 BY THOSE WHO NE'ER SUCCEED.
 TO COMPREHEND NECTAR
 REQUIRES SOREST NEED.
           EMILY DICKINSON
 Job cpu time:  0 days  1 hours 59 minutes 22.0 seconds.
 File lengths (MBytes):  RWF=     42 Int=      0 D2E=      0 Chk=      5 Scr=      1
 Normal termination of Gaussian 09 at Fri Nov 22 18:57:30 2024.
