 Entering Link 1 = C:\G09W\l1.exe PID=     12380.
  
 Copyright (c) 1988,1990,1992,1993,1995,1998,2003,2009, Gaussian, Inc.
                  All Rights Reserved.
  
 This is part of the Gaussian(R) 09 program.  It is based on
 the Gaussian(R) 03 system (copyright 2003, Gaussian, Inc.),
 the Gaussian(R) 98 system (copyright 1998, Gaussian, Inc.),
 the Gaussian(R) 94 system (copyright 1995, Gaussian, Inc.),
 the Gaussian 92(TM) system (copyright 1992, Gaussian, Inc.),
 the Gaussian 90(TM) system (copyright 1990, Gaussian, Inc.),
 the Gaussian 88(TM) system (copyright 1988, Gaussian, Inc.),
 the Gaussian 86(TM) system (copyright 1986, Carnegie Mellon
 University), and the Gaussian 82(TM) system (copyright 1983,
 Carnegie Mellon University). Gaussian is a federally registered
 trademark of Gaussian, Inc.
  
 This software contains proprietary and confidential information,
 including trade secrets, belonging to Gaussian, Inc.
  
 This software is provided under written license and may be
 used, copied, transmitted, or stored only in accord with that
 written license.
  
 The following legend is applicable only to US Government
 contracts under FAR:
  
                    RESTRICTED RIGHTS LEGEND
  
 Use, reproduction and disclosure by the US Government is
 subject to restrictions as set forth in subparagraphs (a)
 and (c) of the Commercial Computer Software - Restricted
 Rights clause in FAR 52.227-19.
  
 Gaussian, Inc.
 340 Quinnipiac St., Bldg. 40, Wallingford CT 06492
  
  
 ---------------------------------------------------------------
 Warning -- This program may not be used in any manner that
 competes with the business of Gaussian, Inc. or will provide
 assistance to any competitor of Gaussian, Inc.  The licensee
 of this program is prohibited from giving any competitor of
 Gaussian, Inc. access to this program.  By using this program,
 the user acknowledges that Gaussian, Inc. is engaged in the
 business of creating and licensing software in the field of
 computational chemistry and represents and warrants to the
 licensee that it is not a competitor of Gaussian, Inc. and that
 it will not use this program in any manner prohibited above.
 ---------------------------------------------------------------
  

 Cite this work as:
 Gaussian 09, Revision A.02,
 M. J. Frisch, G. W. Trucks, H. B. Schlegel, G. E. Scuseria, 
 M. A. Robb, J. R. Cheeseman, G. Scalmani, V. Barone, B. Mennucci, 
 G. A. Petersson, H. Nakatsuji, M. Caricato, X. Li, H. P. Hratchian, 
 A. F. Izmaylov, J. Bloino, G. Zheng, J. L. Sonnenberg, M. Hada, 
 M. Ehara, K. Toyota, R. Fukuda, J. Hasegawa, M. Ishida, T. Nakajima, 
 Y. Honda, O. Kitao, H. Nakai, T. Vreven, J. A. Montgomery, Jr., 
 J. E. Peralta, F. Ogliaro, M. Bearpark, J. J. Heyd, E. Brothers, 
 K. N. Kudin, V. N. Staroverov, R. Kobayashi, J. Normand, 
 K. Raghavachari, A. Rendell, J. C. Burant, S. S. Iyengar, J. Tomasi, 
 M. Cossi, N. Rega, J. M. Millam, M. Klene, J. E. Knox, J. B. Cross, 
 V. Bakken, C. Adamo, J. Jaramillo, R. Gomperts, R. E. Stratmann, 
 O. Yazyev, A. J. Austin, R. Cammi, C. Pomelli, J. W. Ochterski, 
 R. L. Martin, K. Morokuma, V. G. Zakrzewski, G. A. Voth, 
 P. Salvador, J. J. Dannenberg, S. Dapprich, A. D. Daniels, 
 O. Farkas, J. B. Foresman, J. V. Ortiz, J. Cioslowski, 
 and D. J. Fox, Gaussian, Inc., Wallingford CT, 2009.
 
 ******************************************
 Gaussian 09:  IA32W-G09RevA.02 11-Jun-2009
                27-Nov-2024 
 ******************************************
 %chk=C:\G09W\Midterm1\E1energy.chk
 -----------------------------
 # hf/6-311g geom=connectivity
 -----------------------------
 1/38=1,57=2/1;
 2/12=2,17=6,18=5,40=1/2;
 3/5=4,6=6,11=9,16=1,25=1,30=1/1,2,3;
 4//1;
 5/5=2,38=5/2;
 6/7=2,8=2,9=2,10=2,28=1/1;
 99/5=1,9=1/99;
 -------------------
 Title Card Required
 -------------------
 Symbolic Z-matrix:
 Charge =  0 Multiplicity = 1
 C                    -4.57459  -3.15356   4.28906 
 C                    -3.59176  -3.05683   3.29477 
 C                    -2.99667  -1.8191    3.01581 
 C                    -3.38441  -0.6781    3.73113 
 C                    -4.36724  -0.77483   4.72542 
 C                    -4.96233  -2.01256   5.00439 
 H                    -5.02895  -4.09859   4.50205 
 H                    -3.29571  -3.92801   2.7486 
 H                    -2.93005   0.26693   3.51814 
 H                    -4.66329   0.09635   5.27159 
 H                    -5.71274  -2.08641   5.76355 
 C                    -1.91664  -1.71281   1.92318 
 C                    -1.49054  -2.96666   1.13711 
 H                    -1.94491  -3.91169   1.3501 
 O                    -1.38227  -0.60138   1.67269 
 O                     0.23838  -2.7534   -1.01793 
 H                     1.02066  -3.30524  -0.94643 
 C                    -0.54011  -2.87312   0.1756 
 C                    -0.30429  -4.36771  -0.11111 
 C                     0.54285  -4.97993   1.01989 
 H                     1.48427  -4.47428   1.07411 
 H                     0.02616  -4.87251   1.95069 
 H                     0.7067   -6.01838   0.82068 
 C                    -1.65923  -5.09546  -0.18914 
 H                    -1.49538  -6.13391  -0.38835 
 H                    -2.17592  -4.98804   0.74166 
 H                    -2.24783  -4.67009  -0.97497 
 C                     0.43936  -4.52231  -1.45077 
 H                     1.38078  -4.01667  -1.39655 
 H                     0.60321  -5.56076  -1.64997 
 H                    -0.14924  -4.09694  -2.23659 
 
                          Input orientation:                          
 ---------------------------------------------------------------------
 Center     Atomic      Atomic             Coordinates (Angstroms)
 Number     Number       Type             X           Y           Z
 ---------------------------------------------------------------------
      1          6           0       -4.574586   -3.153559    4.289060
      2          6           0       -3.591756   -3.056832    3.294770
      3          6           0       -2.996670   -1.819103    3.015806
      4          6           0       -3.384411   -0.678101    3.731133
      5          6           0       -4.367241   -0.774828    4.725423
      6          6           0       -4.962329   -2.012557    5.004386
      7          1           0       -5.028948   -4.098592    4.502054
      8          1           0       -3.295707   -3.928012    2.748601
      9          1           0       -2.930049    0.266932    3.518139
     10          1           0       -4.663292    0.096353    5.271590
     11          1           0       -5.712742   -2.086409    5.763547
     12          6           0       -1.916636   -1.712810    1.923182
     13          6           0       -1.490543   -2.966659    1.137110
     14          1           0       -1.944907   -3.911692    1.350103
     15          8           0       -1.382270   -0.601380    1.672686
     16          8           0        0.238382   -2.753401   -1.017928
     17          1           0        1.020659   -3.305244   -0.946432
     18          6           0       -0.540113   -2.873121    0.175601
     19          6           0       -0.304286   -4.367706   -0.111105
     20          6           0        0.542847   -4.979930    1.019889
     21          1           0        1.484271   -4.474282    1.074111
     22          1           0        0.026161   -4.872508    1.950693
     23          1           0        0.706700   -6.018375    0.820684
     24          6           0       -1.659234   -5.095462   -0.189144
     25          1           0       -1.495380   -6.133907   -0.388349
     26          1           0       -2.175920   -4.988040    0.741660
     27          1           0       -2.247826   -4.670086   -0.974965
     28          6           0        0.439355   -4.522313   -1.450767
     29          1           0        1.380780   -4.016665   -1.396546
     30          1           0        0.603209   -5.560759   -1.649972
     31          1           0       -0.149237   -4.096938   -2.236588
 ---------------------------------------------------------------------
                    Distance matrix (angstroms):
                    1          2          3          4          5
     1  C    0.000000
     2  C    1.401400   0.000000
     3  C    2.427296   1.401400   0.000000
     4  C    2.802800   2.427296   1.401400   0.000000
     5  C    2.427296   2.802800   2.427296   1.401400   0.000000
     6  C    1.401400   2.427296   2.802800   2.427296   1.401400
     7  H    1.070000   2.146700   3.396345   3.872800   3.396345
     8  H    2.146700   1.070000   2.146700   3.396345   3.872800
     9  H    3.872800   3.396345   2.146700   1.070000   2.146700
    10  H    3.396345   3.872800   3.396345   2.146700   1.070000
    11  H    2.146700   3.396345   3.872800   3.396345   2.146700
    12  C    3.838989   2.548270   1.540000   2.548270   3.838989
    13  C    4.413732   3.013092   2.667358   3.943753   5.094654
    14  H    4.015898   2.687866   2.873969   4.265863   5.205805
    15  O    4.852824   3.679977   2.427572   2.872571   4.273095
    16  O    7.175577   5.775933   5.254473   6.323377   7.623162
    17  H    7.664213   6.270876   5.834971   6.941625   8.222069
    18  C    5.768549   4.367550   3.900307   5.054697   6.304810
    19  C    6.250685   4.911806   4.849937   6.153305   7.266938
    20  C    6.341232   5.095913   5.148076   6.424946   7.451364
    21  H    6.984980   5.718963   5.558685   6.721222   7.826764
    22  H    5.439633   4.265272   4.426652   5.691662   6.617559
    23  H    6.937491   5.776553   6.013934   7.329832   8.275666
    24  C    5.685470   4.475300   4.774408   6.152877   7.081960
    25  H    6.343669   5.237227   5.697340   7.092559   7.944683
    26  H    4.658644   3.500361   3.985917   5.382655   6.198662
    27  H    5.951775   4.758085   4.961363   6.274961   7.222145
    28  C    7.743301   6.396688   6.250111   7.500084   8.677116
    29  H    8.278734   6.903320   6.592434   7.755395   9.001542
    30  H    8.238706   6.951105   6.980588   8.288411   9.394476
    31  H    7.940891   6.597627   6.394064   7.600559   8.791904
                    6          7          8          9         10
     6  C    0.000000
     7  H    2.146700   0.000000
     8  H    3.396345   2.471400   0.000000
     9  H    3.396345   4.942800   4.280590   0.000000
    10  H    2.146700   4.280590   4.942800   2.471400   0.000000
    11  H    1.070000   2.471400   4.280590   4.280590   2.471400
    12  C    4.342800   4.693509   2.736837   2.736837   4.693509
    13  C    5.283883   5.012427   2.603790   4.265863   6.045022
    14  H    5.105421   4.413732   1.944408   4.809552   6.231540
    15  O    5.090036   5.790861   3.985638   2.560329   4.919761
    16  O    7.991527   7.747549   5.296815   6.303751   8.467913
    17  H    8.536945   8.180046   5.715955   6.949888   9.085261
    18  C    6.604069   6.353709   3.914898   5.171488   7.196352
    19  C    7.308374   6.608789   4.161713   6.445613   8.240277
    20  C    7.415421   6.629263   4.339294   6.769920   8.423151
    21  H    7.941398   7.369800   5.094165   6.923771   8.735105
    22  H    6.510713   5.715112   3.544508   6.132692   7.596637
    23  H    8.104803   7.080658   4.909760   7.746438   9.275628
    24  C    6.883857   5.861405   3.559681   6.641851   8.111653
    25  H    7.621473   6.367468   4.236462   7.634767   8.993704
    26  H    5.898170   4.803275   2.530889   5.991017   7.249713
    27  H    7.084040   6.169196   3.938740   6.710258   8.220271
    28  C    8.783283   8.094317   5.651423   7.679830   9.620768
    29  H    9.231652   8.711188   6.249770   7.815790   9.895037
    30  H    9.372589   8.467972   6.100398   8.553086  10.375306
    31  H    8.941040   8.319909   5.897535   7.739067   9.712523
                   11         12         13         14         15
    11  H    0.000000
    12  C    5.412800   0.000000
    13  C    6.325007   1.540000   0.000000
    14  H    6.083315   2.272510   1.070000   0.000000
    15  O    6.139499   1.258400   2.427572   3.373245   0.000000
    16  O    9.047053   3.791709   2.771075   3.422859   3.807507
    17  H    9.583740   4.404343   3.280538   3.799532   4.465952
    18  C    7.655073   2.509019   1.355200   2.105120   2.848034
    19  C    8.304652   3.713014   2.219951   2.243817   4.304552
    20  C    8.367027   4.187966   2.863856   2.727470   4.827412
    21  H    8.915702   4.462378   3.335628   3.485963   4.855379
    22  H    7.432039   3.709300   2.567989   2.273540   4.505940
    23  H    9.005636   5.160938   3.773722   3.427743   5.868009
    24  C    7.805117   3.996312   2.513804   1.962703   4.872359
    25  H    8.486118   5.006669   3.515468   2.857015   5.905041
    26  H    6.793226   3.491469   2.170738   1.257814   4.554061
    27  H    8.005534   4.153844   2.817091   2.464318   4.930883
    28  C    9.789191   4.982724   3.583529   3.728598   5.333666
    29  H   10.262108   5.215485   3.970695   4.314544   5.358992
    30  H   10.340339   5.824411   4.345225   4.267642   6.291075
    31  H    9.949722   5.109936   3.802430   4.015358   5.387181
                   16         17         18         19         20
    16  O    0.000000
    17  H    0.960000   0.000000
    18  C    1.430000   1.970203   0.000000
    19  C    1.929456   1.892638   1.540000   0.000000
    20  C    3.033617   2.626652   2.514809   1.540000   0.000000
    21  H    2.981660   2.379954   2.732978   2.148263   1.070000
    22  H    3.653542   3.440739   2.732978   2.148263   1.070000
    23  H    3.776225   3.253053   3.444314   2.148263   1.070000
    24  C    3.126192   3.310618   2.514809   1.540000   2.514809
    25  H    3.850990   3.826650   3.444314   2.148263   2.732978
    26  H    3.730766   3.987427   2.732978   2.148263   2.732978
    27  H    3.139547   3.542119   2.732978   2.148263   3.444314
    28  C    1.832155   1.439975   2.514809   1.540000   2.514809
    29  H    1.744781   0.915647   2.732978   2.148263   2.732978
    30  H    2.900662   2.399288   3.444314   2.148263   2.732978
    31  H    1.854851   1.913097   2.732978   2.148263   3.444314
                   21         22         23         24         25
    21  H    0.000000
    22  H    1.747303   0.000000
    23  H    1.747303   1.747303   0.000000
    24  C    3.444314   2.732978   2.732978   0.000000
    25  H    3.710993   3.062243   2.514809   1.070000   0.000000
    26  H    3.710993   2.514809   3.062243   1.070000   1.747303
    27  H    4.262112   3.710993   3.710993   1.070000   1.747303
    28  C    2.732978   3.444314   2.732978   2.514809   2.732978
    29  H    2.514809   3.710993   3.062243   3.444314   3.710993
    30  H    3.062243   3.710993   2.514809   2.732978   2.514809
    31  H    3.710993   4.262112   3.710993   2.732978   3.062243
                   26         27         28         29         30
    26  H    0.000000
    27  H    1.747303   0.000000
    28  C    3.444314   2.732978   0.000000
    29  H    4.262112   3.710993   1.070000   0.000000
    30  H    3.710993   3.062243   1.070000   1.747303   0.000000
    31  H    3.710993   2.514809   1.070000   1.747303   1.747303
                   31
    31  H    0.000000
 Stoichiometry    C13H16O2
 Framework group  C1[X(C13H16O2)]
 Deg. of freedom    87
 Full point group                 C1      NOp   1
 Largest Abelian subgroup         C1      NOp   1
 Largest concise Abelian subgroup C1      NOp   1
                         Standard orientation:                         
 ---------------------------------------------------------------------
 Center     Atomic      Atomic             Coordinates (Angstroms)
 Number     Number       Type             X           Y           Z
 ---------------------------------------------------------------------
      1          6           0       -3.371439   -1.669743   -0.094317
      2          6           0       -2.111543   -1.056095   -0.089807
      3          6           0       -2.012092    0.339314   -0.006951
      4          6           0       -3.172538    1.121075    0.071395
      5          6           0       -4.432434    0.507427    0.066884
      6          6           0       -4.531884   -0.887982   -0.015973
      7          1           0       -3.447371   -2.735169   -0.157581
      8          1           0       -1.225517   -1.652987   -0.149626
      9          1           0       -3.096605    2.186500    0.134658
     10          1           0       -5.318459    1.104319    0.126701
     11          1           0       -5.493843   -1.356516   -0.019419
     12          6           0       -0.627591    1.013652   -0.001991
     13          6           0        0.647624    0.154574   -0.088082
     14          1           0        0.571691   -0.910852   -0.151347
     15          8           0       -0.538289    2.266672    0.072414
     16          8           0        3.131540    1.351308   -0.365281
     17          1           0        3.764961    1.095937    0.309378
     18          6           0        1.865985    0.747992   -0.083717
     19          6           0        2.765324   -0.492910    0.067781
     20          6           0        2.720675   -0.984227    1.526621
     21          1           0        3.070971   -0.208547    2.175090
     22          1           0        1.714491   -1.239093    1.786500
     23          1           0        3.345540   -1.846413    1.631883
     24          6           0        2.261159   -1.609311   -0.865529
     25          1           0        2.886024   -2.471496   -0.760268
     26          1           0        1.254975   -1.864176   -0.605650
     27          1           0        2.292181   -1.267941   -1.879139
     28          6           0        4.213477   -0.126095   -0.306250
     29          1           0        4.563773    0.649586    0.342218
     30          1           0        4.838342   -0.988280   -0.200989
     31          1           0        4.244499    0.215275   -1.319860
 ---------------------------------------------------------------------
 Rotational constants (GHZ):      1.4531260      0.2862906      0.2530943
 Standard basis: 6-311G (5D, 7F)
 There are   243 symmetry adapted basis functions of A   symmetry.
 Integral buffers will be    262144 words long.
 Raffenetti 1 integral format.
 Two-electron integral symmetry is turned on.
   243 basis functions,   470 primitive gaussians,   243 cartesian basis functions
    55 alpha electrons       55 beta electrons
       nuclear repulsion energy       960.0678634566 Hartrees.
 NAtoms=   31 NActive=   31 NUniq=   31 SFac= 7.50D-01 NAtFMM=   80 NAOKFM=F Big=F
 One-electron integrals computed using PRISM.
 NBasis=   243 RedAO= T  NBF=   243
 NBsUse=   243 1.00D-06 NBFU=   243
 Harris functional with IExCor=  205 diagonalized for initial guess.
 ExpMin= 1.03D-01 ExpMax= 8.59D+03 ExpMxC= 1.30D+03 IAcc=1 IRadAn=         1 AccDes= 0.00D+00
 HarFok:  IExCor=  205 AccDes= 0.00D+00 IRadAn=         1 IDoV= 1
 ScaDFX=  1.000000  1.000000  1.000000  1.000000
 FoFCou: FMM=F IPFlag=           0 FMFlag=      100000 FMFlg1=           0
         NFxFlg=           0 DoJE=T BraDBF=F KetDBF=T FulRan=T
         Omega=  0.000000  0.000000  1.000000  0.000000  0.000000 ICntrl=     500 IOpCl=  0
         NMat0=    1 NMatS0=    1 NMatT0=    0 NMatD0=    1 NMtDS0=    0 NMtDT0=    0
         I1Cent=           4 NGrid=           0.
 Petite list used in FoFCou.
 Initial guess orbital symmetries:
       Occupied  (A) (A) (A) (A) (A) (A) (A) (A) (A) (A) (A) (A)
                 (A) (A) (A) (A) (A) (A) (A) (A) (A) (A) (A) (A)
                 (A) (A) (A) (A) (A) (A) (A) (A) (A) (A) (A) (A)
                 (A) (A) (A) (A) (A) (A) (A) (A) (A) (A) (A) (A)
                 (A) (A) (A) (A) (A) (A) (A)
       Virtual   (A) (A) (A) (A) (A) (A) (A) (A) (A) (A) (A) (A)
                 (A) (A) (A) (A) (A) (A) (A) (A) (A) (A) (A) (A)
                 (A) (A) (A) (A) (A) (A) (A) (A) (A) (A) (A) (A)
                 (A) (A) (A) (A) (A) (A) (A) (A) (A) (A) (A) (A)
                 (A) (A) (A) (A) (A) (A) (A) (A) (A) (A) (A) (A)
                 (A) (A) (A) (A) (A) (A) (A) (A) (A) (A) (A) (A)
                 (A) (A) (A) (A) (A) (A) (A) (A) (A) (A) (A) (A)
                 (A) (A) (A) (A) (A) (A) (A) (A) (A) (A) (A) (A)
                 (A) (A) (A) (A) (A) (A) (A) (A) (A) (A) (A) (A)
                 (A) (A) (A) (A) (A) (A) (A) (A) (A) (A) (A) (A)
                 (A) (A) (A) (A) (A) (A) (A) (A) (A) (A) (A) (A)
                 (A) (A) (A) (A) (A) (A) (A) (A) (A) (A) (A) (A)
                 (A) (A) (A) (A) (A) (A) (A) (A) (A) (A) (A) (A)
                 (A) (A) (A) (A) (A) (A) (A) (A) (A) (A) (A) (A)
                 (A) (A) (A) (A) (A) (A) (A) (A) (A) (A) (A) (A)
                 (A) (A) (A) (A) (A) (A) (A) (A)
 The electronic state of the initial guess is 1-A.
 Requested convergence on RMS density matrix=1.00D-08 within 128 cycles.
 Requested convergence on MAX density matrix=1.00D-06.
 Requested convergence on             energy=1.00D-06.
 No special actions if energy rises.
 Integral accuracy reduced to 1.0D-05 until final iterations.
 Initial convergence to 1.0D-05 achieved.  Increase integral accuracy.
 SCF Done:  E(RHF) =  -650.795154852     A.U. after   17 cycles
             Convg  =    0.8899D-08             -V/T =  1.9980

 **********************************************************************

            Population analysis using the SCF density.

 **********************************************************************

 Orbital symmetries:
       Occupied  (A) (A) (A) (A) (A) (A) (A) (A) (A) (A) (A) (A)
                 (A) (A) (A) (A) (A) (A) (A) (A) (A) (A) (A) (A)
                 (A) (A) (A) (A) (A) (A) (A) (A) (A) (A) (A) (A)
                 (A) (A) (A) (A) (A) (A) (A) (A) (A) (A) (A) (A)
                 (A) (A) (A) (A) (A) (A) (A)
       Virtual   (A) (A) (A) (A) (A) (A) (A) (A) (A) (A) (A) (A)
                 (A) (A) (A) (A) (A) (A) (A) (A) (A) (A) (A) (A)
                 (A) (A) (A) (A) (A) (A) (A) (A) (A) (A) (A) (A)
                 (A) (A) (A) (A) (A) (A) (A) (A) (A) (A) (A) (A)
                 (A) (A) (A) (A) (A) (A) (A) (A) (A) (A) (A) (A)
                 (A) (A) (A) (A) (A) (A) (A) (A) (A) (A) (A) (A)
                 (A) (A) (A) (A) (A) (A) (A) (A) (A) (A) (A) (A)
                 (A) (A) (A) (A) (A) (A) (A) (A) (A) (A) (A) (A)
                 (A) (A) (A) (A) (A) (A) (A) (A) (A) (A) (A) (A)
                 (A) (A) (A) (A) (A) (A) (A) (A) (A) (A) (A) (A)
                 (A) (A) (A) (A) (A) (A) (A) (A) (A) (A) (A) (A)
                 (A) (A) (A) (A) (A) (A) (A) (A) (A) (A) (A) (A)
                 (A) (A) (A) (A) (A) (A) (A) (A) (A) (A) (A) (A)
                 (A) (A) (A) (A) (A) (A) (A) (A) (A) (A) (A) (A)
                 (A) (A) (A) (A) (A) (A) (A) (A) (A) (A) (A) (A)
                 (A) (A) (A) (A) (A) (A) (A) (A)
 The electronic state is 1-A.
 Alpha  occ. eigenvalues --  -20.57912 -20.53530 -11.35081 -11.34239 -11.26469
 Alpha  occ. eigenvalues --  -11.26163 -11.26135 -11.26048 -11.25733 -11.25390
 Alpha  occ. eigenvalues --  -11.25280 -11.25242 -11.25073 -11.22919 -11.22844
 Alpha  occ. eigenvalues --   -1.46998  -1.36423  -1.16815  -1.14826  -1.07424
 Alpha  occ. eigenvalues --   -1.04259  -1.03020  -0.98300  -0.97103  -0.90741
 Alpha  occ. eigenvalues --   -0.86054  -0.84208  -0.79454  -0.76809  -0.72998
 Alpha  occ. eigenvalues --   -0.70859  -0.68489  -0.67551  -0.66655  -0.64093
 Alpha  occ. eigenvalues --   -0.62111  -0.60846  -0.60297  -0.59426  -0.59075
 Alpha  occ. eigenvalues --   -0.57436  -0.55682  -0.53896  -0.53111  -0.52173
 Alpha  occ. eigenvalues --   -0.50359  -0.49868  -0.49642  -0.48744  -0.46740
 Alpha  occ. eigenvalues --   -0.41584  -0.38744  -0.35401  -0.34639  -0.34364
 Alpha virt. eigenvalues --    0.06527   0.11818   0.12346   0.13720   0.14940
 Alpha virt. eigenvalues --    0.16767   0.17780   0.19061   0.19202   0.19773
 Alpha virt. eigenvalues --    0.21091   0.21145   0.21885   0.24225   0.24449
 Alpha virt. eigenvalues --    0.25567   0.25665   0.26822   0.29005   0.31601
 Alpha virt. eigenvalues --    0.33309   0.33529   0.35116   0.35970   0.36586
 Alpha virt. eigenvalues --    0.38455   0.39818   0.40466   0.42787   0.43659
 Alpha virt. eigenvalues --    0.44685   0.44993   0.45314   0.46168   0.50029
 Alpha virt. eigenvalues --    0.52326   0.52866   0.54926   0.55850   0.56190
 Alpha virt. eigenvalues --    0.56824   0.57982   0.59084   0.59580   0.60023
 Alpha virt. eigenvalues --    0.61495   0.61736   0.63116   0.63385   0.63730
 Alpha virt. eigenvalues --    0.64677   0.65059   0.65877   0.67782   0.69553
 Alpha virt. eigenvalues --    0.71005   0.72087   0.72637   0.74310   0.76022
 Alpha virt. eigenvalues --    0.77277   0.78142   0.79244   0.80258   0.80735
 Alpha virt. eigenvalues --    0.81288   0.81565   0.82008   0.82413   0.83042
 Alpha virt. eigenvalues --    0.83442   0.84002   0.84377   0.85623   0.86155
 Alpha virt. eigenvalues --    0.86977   0.87270   0.88490   0.90526   0.91540
 Alpha virt. eigenvalues --    0.92047   0.94019   0.95137   0.96005   0.96722
 Alpha virt. eigenvalues --    0.99249   1.00899   1.03573   1.04436   1.07118
 Alpha virt. eigenvalues --    1.09264   1.10785   1.13513   1.14356   1.17266
 Alpha virt. eigenvalues --    1.19836   1.21017   1.21679   1.24174   1.25485
 Alpha virt. eigenvalues --    1.25905   1.28297   1.32519   1.33873   1.37917
 Alpha virt. eigenvalues --    1.40282   1.43348   1.46846   1.49966   1.50803
 Alpha virt. eigenvalues --    1.97709   2.04000   2.53179   2.55459   2.55905
 Alpha virt. eigenvalues --    2.57936   2.60161   2.61035   2.63219   2.63707
 Alpha virt. eigenvalues --    2.64880   2.66360   2.68016   2.68429   2.68680
 Alpha virt. eigenvalues --    2.73428   2.80022   2.88765   2.89142   2.92467
 Alpha virt. eigenvalues --    2.95053   2.97562   3.02954   3.06481   3.07615
 Alpha virt. eigenvalues --    3.10293   3.13549   3.15968   3.20124   3.21485
 Alpha virt. eigenvalues --    3.23937   3.25265   3.26481   3.27874   3.29192
 Alpha virt. eigenvalues --    3.30487   3.30986   3.31590   3.33715   3.36462
 Alpha virt. eigenvalues --    3.38692   3.39375   3.43890   3.49398   3.50751
 Alpha virt. eigenvalues --    3.53381   3.54546   3.55021   3.57354   3.61158
 Alpha virt. eigenvalues --    3.63354   3.65499   3.68760   3.70118   3.73080
 Alpha virt. eigenvalues --    3.76327   3.87551   5.43328   5.47614   5.52297
 Alpha virt. eigenvalues --    5.52788   5.58741   5.70402  24.26646  24.42975
 Alpha virt. eigenvalues --   24.49079  24.50180  24.56587  24.61582  24.70780
 Alpha virt. eigenvalues --   24.75128  24.76699  24.77821  24.78950  24.84922
 Alpha virt. eigenvalues --   25.01961  51.62472  51.63181
          Condensed to atoms (all electrons):
              1          2          3          4          5          6
     1  C    5.073287   0.462379  -0.065715  -0.023769  -0.074418   0.499438
     2  C    0.462379   5.087043   0.403766  -0.106700  -0.023660  -0.095497
     3  C   -0.065715   0.403766   5.837100   0.441287  -0.061035  -0.009612
     4  C   -0.023769  -0.106700   0.441287   5.085353   0.437819  -0.082059
     5  C   -0.074418  -0.023660  -0.061035   0.437819   5.098122   0.479286
     6  C    0.499438  -0.095497  -0.009612  -0.082059   0.479286   4.997031
     7  H    0.397393  -0.035896   0.005495  -0.000192   0.005376  -0.037350
     8  H   -0.029280   0.380238  -0.048138   0.003546   0.000115   0.004236
     9  H   -0.000425   0.004139  -0.040728   0.398349  -0.041576   0.004601
    10  H    0.005731  -0.000273   0.005958  -0.037759   0.400202  -0.040607
    11  H   -0.041399   0.007581  -0.001491   0.006855  -0.041333   0.399162
    12  C    0.007392   0.000482   0.002599  -0.042498   0.007053   0.001016
    13  C    0.000060   0.018890  -0.190417   0.013648  -0.000588   0.000091
    14  H   -0.000052  -0.007439   0.013136   0.000013  -0.000013   0.000004
    15  O   -0.000104   0.004360  -0.154582   0.011076   0.000625   0.000005
    16  O    0.000000  -0.000006   0.000006   0.000000   0.000000   0.000000
    17  H    0.000000   0.000008  -0.000015  -0.000001   0.000000   0.000000
    18  C   -0.000087   0.000095   0.015394  -0.000522   0.000008   0.000002
    19  C    0.000004   0.000570  -0.002236   0.000009   0.000000   0.000000
    20  C   -0.000003  -0.000154   0.000308   0.000001   0.000000   0.000000
    21  H    0.000000  -0.000005   0.000018   0.000000   0.000000   0.000000
    22  H    0.000012   0.000327  -0.000085  -0.000003   0.000000  -0.000001
    23  H    0.000000   0.000002  -0.000012   0.000000   0.000000   0.000000
    24  C    0.000004  -0.000486  -0.000120   0.000010   0.000000   0.000000
    25  H    0.000001  -0.000001  -0.000019   0.000000   0.000000   0.000000
    26  H    0.000100   0.003221  -0.001934   0.000018  -0.000001   0.000002
    27  H   -0.000004  -0.000092   0.000144   0.000000   0.000000   0.000000
    28  C    0.000000  -0.000006   0.000023   0.000000   0.000000   0.000000
    29  H    0.000000   0.000000  -0.000001   0.000000   0.000000   0.000000
    30  H    0.000000   0.000000   0.000000   0.000000   0.000000   0.000000
    31  H    0.000000   0.000000  -0.000001   0.000000   0.000000   0.000000
              7          8          9         10         11         12
     1  C    0.397393  -0.029280  -0.000425   0.005731  -0.041399   0.007392
     2  C   -0.035896   0.380238   0.004139  -0.000273   0.007581   0.000482
     3  C    0.005495  -0.048138  -0.040728   0.005958  -0.001491   0.002599
     4  C   -0.000192   0.003546   0.398349  -0.037759   0.006855  -0.042498
     5  C    0.005376   0.000115  -0.041576   0.400202  -0.041333   0.007053
     6  C   -0.037350   0.004236   0.004601  -0.040607   0.399162   0.001016
     7  H    0.508321  -0.003063   0.000012  -0.000201  -0.003937  -0.000296
     8  H   -0.003063   0.506366  -0.000185   0.000012  -0.000179   0.001001
     9  H    0.000012  -0.000185   0.453450  -0.003472  -0.000119   0.000219
    10  H   -0.000201   0.000012  -0.003472   0.504458  -0.004012  -0.000322
    11  H   -0.003937  -0.000179  -0.000119  -0.004012   0.509520  -0.000027
    12  C   -0.000296   0.001001   0.000219  -0.000322  -0.000027   5.084284
    13  C    0.000043   0.004209   0.002210  -0.000004   0.000000  -0.019931
    14  H    0.000033  -0.008105  -0.000139   0.000000   0.000000  -0.067869
    15  O    0.000001  -0.000085   0.012079  -0.000029   0.000000   0.652546
    16  O    0.000000  -0.000015   0.000000   0.000000   0.000000  -0.005893
    17  H    0.000000   0.000015   0.000000   0.000000   0.000000   0.001771
    18  C    0.000000   0.001556  -0.000069   0.000000   0.000000  -0.060458
    19  C    0.000000  -0.000247   0.000002   0.000000   0.000000   0.031434
    20  C    0.000000  -0.000177   0.000000   0.000000   0.000000  -0.003783
    21  H    0.000000  -0.000005   0.000000   0.000000   0.000000  -0.000556
    22  H   -0.000001   0.000146   0.000001   0.000000   0.000000   0.001061
    23  H    0.000000   0.000024   0.000000   0.000000   0.000000   0.000197
    24  C   -0.000002   0.001670   0.000001   0.000000   0.000000  -0.007399
    25  H    0.000000   0.000068   0.000000   0.000000   0.000000   0.000215
    26  H   -0.000023   0.006607   0.000006   0.000000   0.000000   0.005971
    27  H    0.000000  -0.000185   0.000000   0.000000   0.000000  -0.001094
    28  C    0.000000   0.000000   0.000000   0.000000   0.000000  -0.001427
    29  H    0.000000  -0.000001   0.000000   0.000000   0.000000  -0.000053
    30  H    0.000000  -0.000001   0.000000   0.000000   0.000000  -0.000002
    31  H    0.000000   0.000001   0.000000   0.000000   0.000000   0.000028
             13         14         15         16         17         18
     1  C    0.000060  -0.000052  -0.000104   0.000000   0.000000  -0.000087
     2  C    0.018890  -0.007439   0.004360  -0.000006   0.000008   0.000095
     3  C   -0.190417   0.013136  -0.154582   0.000006  -0.000015   0.015394
     4  C    0.013648   0.000013   0.011076   0.000000  -0.000001  -0.000522
     5  C   -0.000588  -0.000013   0.000625   0.000000   0.000000   0.000008
     6  C    0.000091   0.000004   0.000005   0.000000   0.000000   0.000002
     7  H    0.000043   0.000033   0.000001   0.000000   0.000000   0.000000
     8  H    0.004209  -0.008105  -0.000085  -0.000015   0.000015   0.001556
     9  H    0.002210  -0.000139   0.012079   0.000000   0.000000  -0.000069
    10  H   -0.000004   0.000000  -0.000029   0.000000   0.000000   0.000000
    11  H    0.000000   0.000000   0.000000   0.000000   0.000000   0.000000
    12  C   -0.019931  -0.067869   0.652546  -0.005893   0.001771  -0.060458
    13  C    6.028777   0.372307  -0.157417  -0.027041  -0.001951   0.372975
    14  H    0.372307   0.574218   0.004750   0.005014  -0.002104  -0.092859
    15  O   -0.157417   0.004750   8.143328  -0.000107   0.000054   0.022881
    16  O   -0.027041   0.005014  -0.000107   9.026532   0.232609   0.120934
    17  H   -0.001951  -0.002104   0.000054   0.232609   0.398365  -0.004046
    18  C    0.372975  -0.092859   0.022881   0.120934  -0.004046   5.172955
    19  C   -0.160638  -0.036201  -0.000351  -0.270757   0.051859   0.135275
    20  C   -0.016626   0.010676   0.000072   0.015786  -0.012656  -0.080882
    21  H    0.003159   0.000753   0.000005   0.003435  -0.000212  -0.003557
    22  H    0.005131   0.000956  -0.000044  -0.000758   0.000820  -0.005957
    23  H    0.001080  -0.001893  -0.000001  -0.000508   0.000748   0.008219
    24  C   -0.067127  -0.005843  -0.000071   0.029311  -0.004670  -0.091604
    25  H    0.006225  -0.003732   0.000001  -0.000630   0.000719   0.007211
    26  H   -0.023381  -0.038582  -0.000214  -0.001421   0.000656   0.000025
    27  H   -0.002044   0.006287   0.000014   0.002267  -0.001040   0.001071
    28  C    0.009508   0.004840  -0.000011  -0.350773  -0.048569  -0.094066
    29  H   -0.001393  -0.000033  -0.000009  -0.130415   0.028080   0.019067
    30  H   -0.000066   0.000077   0.000000   0.021620  -0.007697   0.003736
    31  H   -0.001233  -0.000406  -0.000002  -0.045272   0.003339   0.009019
             19         20         21         22         23         24
     1  C    0.000004  -0.000003   0.000000   0.000012   0.000000   0.000004
     2  C    0.000570  -0.000154  -0.000005   0.000327   0.000002  -0.000486
     3  C   -0.002236   0.000308   0.000018  -0.000085  -0.000012  -0.000120
     4  C    0.000009   0.000001   0.000000  -0.000003   0.000000   0.000010
     5  C    0.000000   0.000000   0.000000   0.000000   0.000000   0.000000
     6  C    0.000000   0.000000   0.000000  -0.000001   0.000000   0.000000
     7  H    0.000000   0.000000   0.000000  -0.000001   0.000000  -0.000002
     8  H   -0.000247  -0.000177  -0.000005   0.000146   0.000024   0.001670
     9  H    0.000002   0.000000   0.000000   0.000001   0.000000   0.000001
    10  H    0.000000   0.000000   0.000000   0.000000   0.000000   0.000000
    11  H    0.000000   0.000000   0.000000   0.000000   0.000000   0.000000
    12  C    0.031434  -0.003783  -0.000556   0.001061   0.000197  -0.007399
    13  C   -0.160638  -0.016626   0.003159   0.005131   0.001080  -0.067127
    14  H   -0.036201   0.010676   0.000753   0.000956  -0.001893  -0.005843
    15  O   -0.000351   0.000072   0.000005  -0.000044  -0.000001  -0.000071
    16  O   -0.270757   0.015786   0.003435  -0.000758  -0.000508   0.029311
    17  H    0.051859  -0.012656  -0.000212   0.000820   0.000748  -0.004670
    18  C    0.135275  -0.080882  -0.003557  -0.005957   0.008219  -0.091604
    19  C    7.147821   0.036751  -0.051373  -0.044450  -0.036304   0.039445
    20  C    0.036751   5.448217   0.382706   0.395301   0.376513  -0.081282
    21  H   -0.051373   0.382706   0.554426  -0.023628  -0.031033   0.011839
    22  H   -0.044450   0.395301  -0.023628   0.506772  -0.023291  -0.004543
    23  H   -0.036304   0.376513  -0.031033  -0.023291   0.541399  -0.010367
    24  C    0.039445  -0.081282   0.011839  -0.004543  -0.010367   5.519883
    25  H   -0.037938  -0.003460  -0.000353  -0.000316   0.002118   0.380842
    26  H   -0.045360  -0.007875  -0.000390   0.001915   0.001292   0.400986
    27  H   -0.057789   0.008266  -0.000289  -0.000331  -0.000295   0.399725
    28  C    0.010274  -0.093056  -0.003321   0.007503  -0.003513  -0.073006
    29  H   -0.078852   0.000820   0.003127  -0.000069  -0.000422   0.007736
    30  H   -0.050275   0.001891   0.000226  -0.000370   0.000075  -0.001990
    31  H   -0.037272   0.004132  -0.000450  -0.000185   0.000172  -0.003036
             25         26         27         28         29         30
     1  C    0.000001   0.000100  -0.000004   0.000000   0.000000   0.000000
     2  C   -0.000001   0.003221  -0.000092  -0.000006   0.000000   0.000000
     3  C   -0.000019  -0.001934   0.000144   0.000023  -0.000001   0.000000
     4  C    0.000000   0.000018   0.000000   0.000000   0.000000   0.000000
     5  C    0.000000  -0.000001   0.000000   0.000000   0.000000   0.000000
     6  C    0.000000   0.000002   0.000000   0.000000   0.000000   0.000000
     7  H    0.000000  -0.000023   0.000000   0.000000   0.000000   0.000000
     8  H    0.000068   0.006607  -0.000185   0.000000  -0.000001  -0.000001
     9  H    0.000000   0.000006   0.000000   0.000000   0.000000   0.000000
    10  H    0.000000   0.000000   0.000000   0.000000   0.000000   0.000000
    11  H    0.000000   0.000000   0.000000   0.000000   0.000000   0.000000
    12  C    0.000215   0.005971  -0.001094  -0.001427  -0.000053  -0.000002
    13  C    0.006225  -0.023381  -0.002044   0.009508  -0.001393  -0.000066
    14  H   -0.003732  -0.038582   0.006287   0.004840  -0.000033   0.000077
    15  O    0.000001  -0.000214   0.000014  -0.000011  -0.000009   0.000000
    16  O   -0.000630  -0.001421   0.002267  -0.350773  -0.130415   0.021620
    17  H    0.000719   0.000656  -0.001040  -0.048569   0.028080  -0.007697
    18  C    0.007211   0.000025   0.001071  -0.094066   0.019067   0.003736
    19  C   -0.037938  -0.045360  -0.057789   0.010274  -0.078852  -0.050275
    20  C   -0.003460  -0.007875   0.008266  -0.093056   0.000820   0.001891
    21  H   -0.000353  -0.000390  -0.000289  -0.003321   0.003127   0.000226
    22  H   -0.000316   0.001915  -0.000331   0.007503  -0.000069  -0.000370
    23  H    0.002118   0.001292  -0.000295  -0.003513  -0.000422   0.000075
    24  C    0.380842   0.400986   0.399725  -0.073006   0.007736  -0.001990
    25  H    0.534415  -0.020572  -0.023706  -0.007826  -0.000151  -0.000569
    26  H   -0.020572   0.612144  -0.031210   0.005337  -0.000346  -0.000365
    27  H   -0.023706  -0.031210   0.503423  -0.000918  -0.000056   0.000610
    28  C   -0.007826   0.005337  -0.000918   5.916683   0.407528   0.368198
    29  H   -0.000151  -0.000346  -0.000056   0.407528   0.695081  -0.024334
    30  H   -0.000569  -0.000365   0.000610   0.368198  -0.024334   0.565784
    31  H    0.000714   0.000375   0.001342   0.399947  -0.023640  -0.026133
             31
     1  C    0.000000
     2  C    0.000000
     3  C   -0.000001
     4  C    0.000000
     5  C    0.000000
     6  C    0.000000
     7  H    0.000000
     8  H    0.000001
     9  H    0.000000
    10  H    0.000000
    11  H    0.000000
    12  C    0.000028
    13  C   -0.001233
    14  H   -0.000406
    15  O   -0.000002
    16  O   -0.045272
    17  H    0.003339
    18  C    0.009019
    19  C   -0.037272
    20  C    0.004132
    21  H   -0.000450
    22  H   -0.000185
    23  H    0.000172
    24  C   -0.003036
    25  H    0.000714
    26  H    0.000375
    27  H    0.001342
    28  C    0.399947
    29  H   -0.023640
    30  H   -0.026133
    31  H    0.445119
 Mulliken atomic charges:
              1
     1  C   -0.210542
     2  C   -0.102887
     3  C   -0.149095
     4  C   -0.104482
     5  C   -0.185982
     6  C   -0.119748
     7  H    0.164285
     8  H    0.179857
     9  H    0.211643
    10  H    0.170316
    11  H    0.169379
    12  C    0.414342
    13  C   -0.168455
    14  H    0.272206
    15  O   -0.538768
    16  O   -0.623917
    17  H    0.363918
    18  C    0.543683
    19  C   -0.543400
    20  C   -0.381489
    21  H    0.155478
    22  H    0.184087
    23  H    0.175799
    24  C   -0.439905
    25  H    0.166743
    26  H    0.133021
    27  H    0.195902
    28  C   -0.453349
    29  H    0.098336
    30  H    0.149586
    31  H    0.273439
 Sum of Mulliken atomic charges =   0.00000
 Mulliken charges with hydrogens summed into heavy atoms:
              1
     1  C   -0.046257
     2  C    0.076970
     3  C   -0.149095
     4  C    0.107162
     5  C   -0.015666
     6  C    0.049632
    12  C    0.414342
    13  C    0.103751
    15  O   -0.538768
    16  O   -0.259999
    18  C    0.543683
    19  C   -0.543400
    20  C    0.133874
    24  C    0.055761
    28  C    0.068012
 Sum of Mulliken charges with hydrogens summed into heavy atoms =   0.00000
 Electronic spatial extent (au):  <R**2>=           4317.2213
 Charge=              0.0000 electrons
 Dipole moment (field-independent basis, Debye):
    X=              1.0845    Y=             -5.1632    Z=              0.7866  Tot=              5.3342
 Quadrupole moment (field-independent basis, Debye-Ang):
   XX=            -71.4557   YY=           -100.6511   ZZ=            -95.6545
   XY=             -1.1855   XZ=              3.2030   YZ=              2.2104
 Traceless Quadrupole moment (field-independent basis, Debye-Ang):
   XX=             17.7981   YY=            -11.3973   ZZ=             -6.4007
   XY=             -1.1855   XZ=              3.2030   YZ=              2.2104
 Octapole moment (field-independent basis, Debye-Ang**2):
  XXX=             -4.1738  YYY=            -29.0619  ZZZ=             -3.1721  XYY=            -12.3961
  XXY=              2.2284  XXZ=             12.9918  XZZ=             22.9338  YZZ=              6.5055
  YYZ=              2.2143  XYZ=              5.8031
 Hexadecapole moment (field-independent basis, Debye-Ang**3):
 XXXX=          -4253.0587 YYYY=           -920.2427 ZZZZ=           -285.3693 XXXY=             29.9949
 XXXZ=             26.4755 YYYX=              6.9980 YYYZ=              3.2611 ZZZX=            -13.1002
 ZZZY=              0.5303 XXYY=           -901.3797 XXZZ=           -898.0176 YYZZ=           -199.6699
 XXYZ=             32.0016 YYXZ=             13.0827 ZZXY=              1.1244
 N-N= 9.600678634566D+02 E-N=-3.441499009400D+03  KE= 6.520785148857D+02
 1|1|UNPC-DESKTOP-K2VF0AK|SP|RHF|6-311G|C13H16O2|MELIH|27-Nov-2024|0||#
  hf/6-311g geom=connectivity||Title Card Required||0,1|C,0,-4.57458554
 ,-3.15355886,4.2890598|C,0,-3.59175638,-3.05683188,3.29476977|C,0,-2.9
 966698,-1.81910281,3.01580617|C,0,-3.38441148,-0.67810098,3.73113348|C
 ,0,-4.36724093,-0.7748279,4.72542325|C,0,-4.96232853,-2.01255669,5.004
 38585|H,0,-5.02894804,-4.09859229,4.50205404|H,0,-3.29570721,-3.928012
 04,2.74860129|H,0,-2.93004907,0.26693247,3.51813917|H,0,-4.66329202,0.
 09635277,5.27158988|H,0,-5.71274207,-2.08640946,5.76354677|C,0,-1.9166
 3591,-1.71280989,1.92318153|C,0,-1.49054309,-2.96665887,1.13711049|H,0
 ,-1.94490689,-3.91169195,1.35010346|O,0,-1.3822696,-0.60138047,1.67268
 635|O,0,0.23838205,-2.75340083,-1.01792845|H,0,1.02065947,-3.30524352,
 -0.94643246|C,0,-0.54011327,-2.87312109,0.17560082|C,0,-0.30428637,-4.
 3677064,-0.11110537|C,0,0.5428465,-4.97992958,1.01988919|H,0,1.4842709
 6,-4.47428152,1.07411095|H,0,0.02616059,-4.87250785,1.95069327|H,0,0.7
 0670024,-6.01837521,0.82068423|C,0,-1.65923374,-5.09546156,-0.18914416
 |H,0,-1.49537999,-6.13390719,-0.38834912|H,0,-2.17591965,-4.98803982,0
 .74165992|H,0,-2.24782606,-4.67008571,-0.97496506|C,0,0.43935503,-4.52
 231338,-1.45076733|H,0,1.3807795,-4.01666532,-1.39654557|H,0,0.6032087
 8,-5.56075901,-1.64997228|H,0,-0.14923728,-4.09693754,-2.23658822||Ver
 sion=IA32W-G09RevA.02|State=1-A|HF=-650.7951549|RMSD=8.899e-009|Dipole
 =-0.2096134,-2.0659734,0.3034408|Quadrupole=4.0548842,-4.9781161,0.923
 2319,-5.4292943,-7.1557712,6.4962431|PG=C01 [X(C13H16O2)]||@


 THE UNDERLYING PHYSICAL LAWS NECESSARY FOR THE 
 MATHEMATICAL THEORY OF A LARGE PART OF PHYSICS AND THE
 WHOLE OF CHEMISTRY ARE THUS COMPLETELY KNOWN, AND THE
 DIFFICULTY IS ONLY THAT THE EXACT APPLICATION OF THESE
 LAWS LEADS TO EQUATIONS MUCH TOO COMPLICATED 
 TO BE SOLUBLE.

                                        -- P. A. M. DIRAC, 1929
 Job cpu time:  0 days  0 hours  1 minutes 15.0 seconds.
 File lengths (MBytes):  RWF=     36 Int=      0 D2E=      0 Chk=      3 Scr=      1
 Normal termination of Gaussian 09 at Wed Nov 27 20:05:21 2024.
