 Entering Link 1 = C:\G09W\l1.exe PID=     17940.
  
 Copyright (c) 1988,1990,1992,1993,1995,1998,2003,2009, Gaussian, Inc.
                  All Rights Reserved.
  
 This is part of the Gaussian(R) 09 program.  It is based on
 the Gaussian(R) 03 system (copyright 2003, Gaussian, Inc.),
 the Gaussian(R) 98 system (copyright 1998, Gaussian, Inc.),
 the Gaussian(R) 94 system (copyright 1995, Gaussian, Inc.),
 the Gaussian 92(TM) system (copyright 1992, Gaussian, Inc.),
 the Gaussian 90(TM) system (copyright 1990, Gaussian, Inc.),
 the Gaussian 88(TM) system (copyright 1988, Gaussian, Inc.),
 the Gaussian 86(TM) system (copyright 1986, Carnegie Mellon
 University), and the Gaussian 82(TM) system (copyright 1983,
 Carnegie Mellon University). Gaussian is a federally registered
 trademark of Gaussian, Inc.
  
 This software contains proprietary and confidential information,
 including trade secrets, belonging to Gaussian, Inc.
  
 This software is provided under written license and may be
 used, copied, transmitted, or stored only in accord with that
 written license.
  
 The following legend is applicable only to US Government
 contracts under FAR:
  
                    RESTRICTED RIGHTS LEGEND
  
 Use, reproduction and disclosure by the US Government is
 subject to restrictions as set forth in subparagraphs (a)
 and (c) of the Commercial Computer Software - Restricted
 Rights clause in FAR 52.227-19.
  
 Gaussian, Inc.
 340 Quinnipiac St., Bldg. 40, Wallingford CT 06492
  
  
 ---------------------------------------------------------------
 Warning -- This program may not be used in any manner that
 competes with the business of Gaussian, Inc. or will provide
 assistance to any competitor of Gaussian, Inc.  The licensee
 of this program is prohibited from giving any competitor of
 Gaussian, Inc. access to this program.  By using this program,
 the user acknowledges that Gaussian, Inc. is engaged in the
 business of creating and licensing software in the field of
 computational chemistry and represents and warrants to the
 licensee that it is not a competitor of Gaussian, Inc. and that
 it will not use this program in any manner prohibited above.
 ---------------------------------------------------------------
  

 Cite this work as:
 Gaussian 09, Revision A.02,
 M. J. Frisch, G. W. Trucks, H. B. Schlegel, G. E. Scuseria, 
 M. A. Robb, J. R. Cheeseman, G. Scalmani, V. Barone, B. Mennucci, 
 G. A. Petersson, H. Nakatsuji, M. Caricato, X. Li, H. P. Hratchian, 
 A. F. Izmaylov, J. Bloino, G. Zheng, J. L. Sonnenberg, M. Hada, 
 M. Ehara, K. Toyota, R. Fukuda, J. Hasegawa, M. Ishida, T. Nakajima, 
 Y. Honda, O. Kitao, H. Nakai, T. Vreven, J. A. Montgomery, Jr., 
 J. E. Peralta, F. Ogliaro, M. Bearpark, J. J. Heyd, E. Brothers, 
 K. N. Kudin, V. N. Staroverov, R. Kobayashi, J. Normand, 
 K. Raghavachari, A. Rendell, J. C. Burant, S. S. Iyengar, J. Tomasi, 
 M. Cossi, N. Rega, J. M. Millam, M. Klene, J. E. Knox, J. B. Cross, 
 V. Bakken, C. Adamo, J. Jaramillo, R. Gomperts, R. E. Stratmann, 
 O. Yazyev, A. J. Austin, R. Cammi, C. Pomelli, J. W. Ochterski, 
 R. L. Martin, K. Morokuma, V. G. Zakrzewski, G. A. Voth, 
 P. Salvador, J. J. Dannenberg, S. Dapprich, A. D. Daniels, 
 O. Farkas, J. B. Foresman, J. V. Ortiz, J. Cioslowski, 
 and D. J. Fox, Gaussian, Inc., Wallingford CT, 2009.
 
 ******************************************
 Gaussian 09:  IA32W-G09RevA.02 11-Jun-2009
                28-Nov-2024 
 ******************************************
 %chk=C:\G09W\Midterm1\E1freq.chk
 ----------------------------------
 # freq hf/6-311g geom=connectivity
 ----------------------------------
 1/10=4,30=1,38=1,57=2/1,3;
 2/12=2,17=6,18=5,40=1/2;
 3/5=4,6=6,11=9,16=1,25=1,30=1,71=2/1,2,3;
 4//1;
 5/5=2,38=5,98=1/2;
 8/6=4,10=90,11=11/1;
 10/13=10,15=4/2;
 11/6=3,8=1,9=11,15=111,16=1/1,2,10;
 10/6=1/2;
 6/7=2,8=2,9=2,10=2,18=1,28=1/1;
 7/8=1,10=1,25=1/1,2,3,16;
 1/10=4,30=1/3;
 99//99;
 -------------------
 Title Card Required
 -------------------
 Symbolic Z-matrix:
 Charge =  0 Multiplicity = 1
 C                    -4.57459  -3.15356   4.28906 
 C                    -3.59176  -3.05683   3.29477 
 C                    -2.99667  -1.8191    3.01581 
 C                    -3.38441  -0.6781    3.73113 
 C                    -4.36724  -0.77483   4.72542 
 C                    -4.96233  -2.01256   5.00439 
 H                    -5.02895  -4.09859   4.50205 
 H                    -3.29571  -3.92801   2.7486 
 H                    -2.93005   0.26693   3.51814 
 H                    -4.66329   0.09635   5.27159 
 H                    -5.71274  -2.08641   5.76355 
 C                    -1.91664  -1.71281   1.92318 
 C                    -1.49054  -2.96666   1.13711 
 H                    -1.94491  -3.91169   1.3501 
 O                    -1.38227  -0.60138   1.67269 
 O                     0.23838  -2.7534   -1.01793 
 H                     1.02066  -3.30524  -0.94643 
 C                    -0.54011  -2.87312   0.1756 
 C                    -0.30429  -4.36771  -0.11111 
 C                     0.54285  -4.97993   1.01989 
 H                     1.48427  -4.47428   1.07411 
 H                     0.02616  -4.87251   1.95069 
 H                     0.7067   -6.01838   0.82068 
 C                    -1.65923  -5.09546  -0.18914 
 H                    -1.49538  -6.13391  -0.38835 
 H                    -2.17592  -4.98804   0.74166 
 H                    -2.24783  -4.67009  -0.97497 
 C                     0.43936  -4.52231  -1.45077 
 H                     1.38078  -4.01667  -1.39655 
 H                     0.60321  -5.56076  -1.64997 
 H                    -0.14924  -4.09694  -2.23659 
 

 GradGradGradGradGradGradGradGradGradGradGradGradGradGradGradGradGradGrad
 Berny optimization.
 Initialization pass.
 Trust Radius=3.00D-01 FncErr=1.00D-07 GrdErr=1.00D-07
 Number of steps in this run=   2 maximum allowed number of steps=   2.
 GradGradGradGradGradGradGradGradGradGradGradGradGradGradGradGradGradGrad

                          Input orientation:                          
 ---------------------------------------------------------------------
 Center     Atomic      Atomic             Coordinates (Angstroms)
 Number     Number       Type             X           Y           Z
 ---------------------------------------------------------------------
      1          6           0       -4.574586   -3.153559    4.289060
      2          6           0       -3.591756   -3.056832    3.294770
      3          6           0       -2.996670   -1.819103    3.015806
      4          6           0       -3.384411   -0.678101    3.731133
      5          6           0       -4.367241   -0.774828    4.725423
      6          6           0       -4.962329   -2.012557    5.004386
      7          1           0       -5.028948   -4.098592    4.502054
      8          1           0       -3.295707   -3.928012    2.748601
      9          1           0       -2.930049    0.266932    3.518139
     10          1           0       -4.663292    0.096353    5.271590
     11          1           0       -5.712742   -2.086409    5.763547
     12          6           0       -1.916636   -1.712810    1.923182
     13          6           0       -1.490543   -2.966659    1.137110
     14          1           0       -1.944907   -3.911692    1.350103
     15          8           0       -1.382270   -0.601380    1.672686
     16          8           0        0.238382   -2.753401   -1.017928
     17          1           0        1.020659   -3.305244   -0.946432
     18          6           0       -0.540113   -2.873121    0.175601
     19          6           0       -0.304286   -4.367706   -0.111105
     20          6           0        0.542847   -4.979930    1.019889
     21          1           0        1.484271   -4.474282    1.074111
     22          1           0        0.026161   -4.872508    1.950693
     23          1           0        0.706700   -6.018375    0.820684
     24          6           0       -1.659234   -5.095462   -0.189144
     25          1           0       -1.495380   -6.133907   -0.388349
     26          1           0       -2.175920   -4.988040    0.741660
     27          1           0       -2.247826   -4.670086   -0.974965
     28          6           0        0.439355   -4.522313   -1.450767
     29          1           0        1.380780   -4.016665   -1.396546
     30          1           0        0.603209   -5.560759   -1.649972
     31          1           0       -0.149237   -4.096938   -2.236588
 ---------------------------------------------------------------------
                    Distance matrix (angstroms):
                    1          2          3          4          5
     1  C    0.000000
     2  C    1.401400   0.000000
     3  C    2.427296   1.401400   0.000000
     4  C    2.802800   2.427296   1.401400   0.000000
     5  C    2.427296   2.802800   2.427296   1.401400   0.000000
     6  C    1.401400   2.427296   2.802800   2.427296   1.401400
     7  H    1.070000   2.146700   3.396345   3.872800   3.396345
     8  H    2.146700   1.070000   2.146700   3.396345   3.872800
     9  H    3.872800   3.396345   2.146700   1.070000   2.146700
    10  H    3.396345   3.872800   3.396345   2.146700   1.070000
    11  H    2.146700   3.396345   3.872800   3.396345   2.146700
    12  C    3.838989   2.548270   1.540000   2.548270   3.838989
    13  C    4.413732   3.013092   2.667358   3.943753   5.094654
    14  H    4.015898   2.687866   2.873969   4.265863   5.205805
    15  O    4.852824   3.679977   2.427572   2.872571   4.273095
    16  O    7.175577   5.775933   5.254473   6.323377   7.623162
    17  H    7.664213   6.270876   5.834971   6.941625   8.222069
    18  C    5.768549   4.367550   3.900307   5.054697   6.304810
    19  C    6.250685   4.911806   4.849937   6.153305   7.266938
    20  C    6.341232   5.095913   5.148076   6.424946   7.451364
    21  H    6.984980   5.718963   5.558685   6.721222   7.826764
    22  H    5.439633   4.265272   4.426652   5.691662   6.617559
    23  H    6.937491   5.776553   6.013934   7.329832   8.275666
    24  C    5.685470   4.475300   4.774408   6.152877   7.081960
    25  H    6.343669   5.237227   5.697340   7.092559   7.944683
    26  H    4.658644   3.500361   3.985917   5.382655   6.198662
    27  H    5.951775   4.758085   4.961363   6.274961   7.222145
    28  C    7.743301   6.396688   6.250111   7.500084   8.677116
    29  H    8.278734   6.903320   6.592434   7.755395   9.001542
    30  H    8.238706   6.951105   6.980588   8.288411   9.394476
    31  H    7.940891   6.597627   6.394064   7.600559   8.791904
                    6          7          8          9         10
     6  C    0.000000
     7  H    2.146700   0.000000
     8  H    3.396345   2.471400   0.000000
     9  H    3.396345   4.942800   4.280590   0.000000
    10  H    2.146700   4.280590   4.942800   2.471400   0.000000
    11  H    1.070000   2.471400   4.280590   4.280590   2.471400
    12  C    4.342800   4.693509   2.736837   2.736837   4.693509
    13  C    5.283883   5.012427   2.603790   4.265863   6.045022
    14  H    5.105421   4.413732   1.944408   4.809552   6.231540
    15  O    5.090036   5.790861   3.985638   2.560329   4.919761
    16  O    7.991527   7.747549   5.296815   6.303751   8.467913
    17  H    8.536945   8.180046   5.715955   6.949888   9.085261
    18  C    6.604069   6.353709   3.914898   5.171488   7.196352
    19  C    7.308374   6.608789   4.161713   6.445613   8.240277
    20  C    7.415421   6.629263   4.339294   6.769920   8.423151
    21  H    7.941398   7.369800   5.094165   6.923771   8.735105
    22  H    6.510713   5.715112   3.544508   6.132692   7.596637
    23  H    8.104803   7.080658   4.909760   7.746438   9.275628
    24  C    6.883857   5.861405   3.559681   6.641851   8.111653
    25  H    7.621473   6.367468   4.236462   7.634767   8.993704
    26  H    5.898170   4.803275   2.530889   5.991017   7.249713
    27  H    7.084040   6.169196   3.938740   6.710258   8.220271
    28  C    8.783283   8.094317   5.651423   7.679830   9.620768
    29  H    9.231652   8.711188   6.249770   7.815790   9.895037
    30  H    9.372589   8.467972   6.100398   8.553086  10.375306
    31  H    8.941040   8.319909   5.897535   7.739067   9.712523
                   11         12         13         14         15
    11  H    0.000000
    12  C    5.412800   0.000000
    13  C    6.325007   1.540000   0.000000
    14  H    6.083315   2.272510   1.070000   0.000000
    15  O    6.139499   1.258400   2.427572   3.373245   0.000000
    16  O    9.047053   3.791709   2.771075   3.422859   3.807507
    17  H    9.583740   4.404343   3.280538   3.799532   4.465952
    18  C    7.655073   2.509019   1.355200   2.105120   2.848034
    19  C    8.304652   3.713014   2.219951   2.243817   4.304552
    20  C    8.367027   4.187966   2.863856   2.727470   4.827412
    21  H    8.915702   4.462378   3.335628   3.485963   4.855379
    22  H    7.432039   3.709300   2.567989   2.273540   4.505940
    23  H    9.005636   5.160938   3.773722   3.427743   5.868009
    24  C    7.805117   3.996312   2.513804   1.962703   4.872359
    25  H    8.486118   5.006669   3.515468   2.857015   5.905041
    26  H    6.793226   3.491469   2.170738   1.257814   4.554061
    27  H    8.005534   4.153844   2.817091   2.464318   4.930883
    28  C    9.789191   4.982724   3.583529   3.728598   5.333666
    29  H   10.262108   5.215485   3.970695   4.314544   5.358992
    30  H   10.340339   5.824411   4.345225   4.267642   6.291075
    31  H    9.949722   5.109936   3.802430   4.015358   5.387181
                   16         17         18         19         20
    16  O    0.000000
    17  H    0.960000   0.000000
    18  C    1.430000   1.970203   0.000000
    19  C    1.929456   1.892638   1.540000   0.000000
    20  C    3.033617   2.626652   2.514809   1.540000   0.000000
    21  H    2.981660   2.379954   2.732978   2.148263   1.070000
    22  H    3.653542   3.440739   2.732978   2.148263   1.070000
    23  H    3.776225   3.253053   3.444314   2.148263   1.070000
    24  C    3.126192   3.310618   2.514809   1.540000   2.514809
    25  H    3.850990   3.826650   3.444314   2.148263   2.732978
    26  H    3.730766   3.987427   2.732978   2.148263   2.732978
    27  H    3.139547   3.542119   2.732978   2.148263   3.444314
    28  C    1.832155   1.439975   2.514809   1.540000   2.514809
    29  H    1.744781   0.915647   2.732978   2.148263   2.732978
    30  H    2.900662   2.399288   3.444314   2.148263   2.732978
    31  H    1.854851   1.913097   2.732978   2.148263   3.444314
                   21         22         23         24         25
    21  H    0.000000
    22  H    1.747303   0.000000
    23  H    1.747303   1.747303   0.000000
    24  C    3.444314   2.732978   2.732978   0.000000
    25  H    3.710993   3.062243   2.514809   1.070000   0.000000
    26  H    3.710993   2.514809   3.062243   1.070000   1.747303
    27  H    4.262112   3.710993   3.710993   1.070000   1.747303
    28  C    2.732978   3.444314   2.732978   2.514809   2.732978
    29  H    2.514809   3.710993   3.062243   3.444314   3.710993
    30  H    3.062243   3.710993   2.514809   2.732978   2.514809
    31  H    3.710993   4.262112   3.710993   2.732978   3.062243
                   26         27         28         29         30
    26  H    0.000000
    27  H    1.747303   0.000000
    28  C    3.444314   2.732978   0.000000
    29  H    4.262112   3.710993   1.070000   0.000000
    30  H    3.710993   3.062243   1.070000   1.747303   0.000000
    31  H    3.710993   2.514809   1.070000   1.747303   1.747303
                   31
    31  H    0.000000
 Stoichiometry    C13H16O2
 Framework group  C1[X(C13H16O2)]
 Deg. of freedom    87
 Full point group                 C1      NOp   1
 Largest Abelian subgroup         C1      NOp   1
 Largest concise Abelian subgroup C1      NOp   1
                         Standard orientation:                         
 ---------------------------------------------------------------------
 Center     Atomic      Atomic             Coordinates (Angstroms)
 Number     Number       Type             X           Y           Z
 ---------------------------------------------------------------------
      1          6           0       -3.371439   -1.669743   -0.094317
      2          6           0       -2.111543   -1.056095   -0.089807
      3          6           0       -2.012092    0.339314   -0.006951
      4          6           0       -3.172538    1.121075    0.071395
      5          6           0       -4.432434    0.507427    0.066884
      6          6           0       -4.531884   -0.887982   -0.015973
      7          1           0       -3.447371   -2.735169   -0.157581
      8          1           0       -1.225517   -1.652987   -0.149626
      9          1           0       -3.096605    2.186500    0.134658
     10          1           0       -5.318459    1.104319    0.126701
     11          1           0       -5.493843   -1.356516   -0.019419
     12          6           0       -0.627591    1.013652   -0.001991
     13          6           0        0.647624    0.154574   -0.088082
     14          1           0        0.571691   -0.910852   -0.151347
     15          8           0       -0.538289    2.266672    0.072414
     16          8           0        3.131540    1.351308   -0.365281
     17          1           0        3.764961    1.095937    0.309378
     18          6           0        1.865985    0.747992   -0.083717
     19          6           0        2.765324   -0.492910    0.067781
     20          6           0        2.720675   -0.984227    1.526621
     21          1           0        3.070971   -0.208547    2.175090
     22          1           0        1.714491   -1.239093    1.786500
     23          1           0        3.345540   -1.846413    1.631883
     24          6           0        2.261159   -1.609311   -0.865529
     25          1           0        2.886024   -2.471496   -0.760268
     26          1           0        1.254975   -1.864176   -0.605650
     27          1           0        2.292181   -1.267941   -1.879139
     28          6           0        4.213477   -0.126095   -0.306250
     29          1           0        4.563773    0.649586    0.342218
     30          1           0        4.838342   -0.988280   -0.200989
     31          1           0        4.244499    0.215275   -1.319860
 ---------------------------------------------------------------------
 Rotational constants (GHZ):      1.4531260      0.2862906      0.2530943
 Standard basis: 6-311G (5D, 7F)
 There are   243 symmetry adapted basis functions of A   symmetry.
 Integral buffers will be    262144 words long.
 Raffenetti 1 integral format.
 Two-electron integral symmetry is turned on.
   243 basis functions,   470 primitive gaussians,   243 cartesian basis functions
    55 alpha electrons       55 beta electrons
       nuclear repulsion energy       960.0678634566 Hartrees.
 NAtoms=   31 NActive=   31 NUniq=   31 SFac= 7.50D-01 NAtFMM=   80 NAOKFM=F Big=F
 One-electron integrals computed using PRISM.
 NBasis=   243 RedAO= T  NBF=   243
 NBsUse=   243 1.00D-06 NBFU=   243
 Harris functional with IExCor=  205 diagonalized for initial guess.
 ExpMin= 1.03D-01 ExpMax= 8.59D+03 ExpMxC= 1.30D+03 IAcc=1 IRadAn=         1 AccDes= 0.00D+00
 HarFok:  IExCor=  205 AccDes= 0.00D+00 IRadAn=         1 IDoV= 1
 ScaDFX=  1.000000  1.000000  1.000000  1.000000
 FoFCou: FMM=F IPFlag=           0 FMFlag=      100000 FMFlg1=           0
         NFxFlg=           0 DoJE=T BraDBF=F KetDBF=T FulRan=T
         Omega=  0.000000  0.000000  1.000000  0.000000  0.000000 ICntrl=     500 IOpCl=  0
         NMat0=    1 NMatS0=    1 NMatT0=    0 NMatD0=    1 NMtDS0=    0 NMtDT0=    0
         I1Cent=           4 NGrid=           0.
 Petite list used in FoFCou.
 Initial guess orbital symmetries:
       Occupied  (A) (A) (A) (A) (A) (A) (A) (A) (A) (A) (A) (A)
                 (A) (A) (A) (A) (A) (A) (A) (A) (A) (A) (A) (A)
                 (A) (A) (A) (A) (A) (A) (A) (A) (A) (A) (A) (A)
                 (A) (A) (A) (A) (A) (A) (A) (A) (A) (A) (A) (A)
                 (A) (A) (A) (A) (A) (A) (A)
       Virtual   (A) (A) (A) (A) (A) (A) (A) (A) (A) (A) (A) (A)
                 (A) (A) (A) (A) (A) (A) (A) (A) (A) (A) (A) (A)
                 (A) (A) (A) (A) (A) (A) (A) (A) (A) (A) (A) (A)
                 (A) (A) (A) (A) (A) (A) (A) (A) (A) (A) (A) (A)
                 (A) (A) (A) (A) (A) (A) (A) (A) (A) (A) (A) (A)
                 (A) (A) (A) (A) (A) (A) (A) (A) (A) (A) (A) (A)
                 (A) (A) (A) (A) (A) (A) (A) (A) (A) (A) (A) (A)
                 (A) (A) (A) (A) (A) (A) (A) (A) (A) (A) (A) (A)
                 (A) (A) (A) (A) (A) (A) (A) (A) (A) (A) (A) (A)
                 (A) (A) (A) (A) (A) (A) (A) (A) (A) (A) (A) (A)
                 (A) (A) (A) (A) (A) (A) (A) (A) (A) (A) (A) (A)
                 (A) (A) (A) (A) (A) (A) (A) (A) (A) (A) (A) (A)
                 (A) (A) (A) (A) (A) (A) (A) (A) (A) (A) (A) (A)
                 (A) (A) (A) (A) (A) (A) (A) (A) (A) (A) (A) (A)
                 (A) (A) (A) (A) (A) (A) (A) (A) (A) (A) (A) (A)
                 (A) (A) (A) (A) (A) (A) (A) (A)
 The electronic state of the initial guess is 1-A.
 Requested convergence on RMS density matrix=1.00D-08 within 128 cycles.
 Requested convergence on MAX density matrix=1.00D-06.
 Requested convergence on             energy=1.00D-06.
 No special actions if energy rises.
 Integral accuracy reduced to 1.0D-05 until final iterations.
 Initial convergence to 1.0D-05 achieved.  Increase integral accuracy.
 SCF Done:  E(RHF) =  -650.795154852     A.U. after   17 cycles
             Convg  =    0.8899D-08             -V/T =  1.9980
 Range of M.O.s used for correlation:     1   243
 NBasis=   243 NAE=    55 NBE=    55 NFC=     0 NFV=     0
 NROrb=    243 NOA=    55 NOB=    55 NVA=   188 NVB=   188

 **** Warning!!: The largest alpha MO coefficient is  0.17067825D+02

          Differentiating once with respect to electric field.
                with respect to dipole field.
          Electric field/nuclear overlap derivatives assumed to be zero.
          There are     3 degrees of freedom in the 1st order CPHF.  IDoFFX=0.
      3 vectors produced by pass  0 Test12= 3.45D-13 3.33D-08 XBig12= 6.14D+01 3.32D+00.
 AX will form     3 AO Fock derivatives at one time.
      3 vectors produced by pass  1 Test12= 3.45D-13 3.33D-08 XBig12= 5.87D+00 4.38D-01.
      3 vectors produced by pass  2 Test12= 3.45D-13 3.33D-08 XBig12= 8.26D-01 2.19D-01.
      3 vectors produced by pass  3 Test12= 3.45D-13 3.33D-08 XBig12= 1.35D-01 7.21D-02.
      3 vectors produced by pass  4 Test12= 3.45D-13 3.33D-08 XBig12= 2.96D-02 5.49D-02.
      3 vectors produced by pass  5 Test12= 3.45D-13 3.33D-08 XBig12= 2.85D-03 1.04D-02.
      3 vectors produced by pass  6 Test12= 3.45D-13 3.33D-08 XBig12= 3.10D-04 4.77D-03.
      3 vectors produced by pass  7 Test12= 3.45D-13 3.33D-08 XBig12= 2.51D-05 9.08D-04.
      3 vectors produced by pass  8 Test12= 3.45D-13 3.33D-08 XBig12= 1.84D-06 1.92D-04.
      3 vectors produced by pass  9 Test12= 3.45D-13 3.33D-08 XBig12= 1.52D-07 5.43D-05.
      3 vectors produced by pass 10 Test12= 3.45D-13 3.33D-08 XBig12= 1.50D-08 1.75D-05.
      3 vectors produced by pass 11 Test12= 3.45D-13 3.33D-08 XBig12= 1.41D-09 8.84D-06.
      3 vectors produced by pass 12 Test12= 3.45D-13 3.33D-08 XBig12= 5.48D-11 1.72D-06.
      3 vectors produced by pass 13 Test12= 3.45D-13 3.33D-08 XBig12= 2.14D-12 2.11D-07.
      2 vectors produced by pass 14 Test12= 3.45D-13 3.33D-08 XBig12= 1.08D-13 5.55D-08.
 Inverted reduced A of dimension    44 with in-core refinement.
 End of Minotr Frequency-dependent properties file   721 does not exist.
 End of Minotr Frequency-dependent properties file   722 does not exist.
 Symmetrizing basis deriv contribution to polar:
 IMax=3 JMax=2 DiffMx= 0.00D+00
 G2DrvN: will do    32 centers at a time, making    1 passes doing MaxLOS=1.
 Calling FoFCou, ICntrl=  3107 FMM=F I1Cent=   0 AccDes= 0.00D+00.
 FoFDir/FoFCou used for L=0 through L=1.
 End of G2Drv Frequency-dependent properties file   721 does not exist.
 End of G2Drv Frequency-dependent properties file   722 does not exist.
          IDoAtm=1111111111111111111111111111111
          Differentiating once with respect to electric field.
                with respect to dipole field.
          Differentiating once with respect to nuclear coordinates.
          There are    96 degrees of freedom in the 1st order CPHF.  IDoFFX=5.
 Will reuse    3 saved solutions.
     90 vectors produced by pass  0 Test12= 1.08D-14 1.04D-09 XBig12= 9.47D-02 1.02D-01.
 AX will form    90 AO Fock derivatives at one time.
     90 vectors produced by pass  1 Test12= 1.08D-14 1.04D-09 XBig12= 6.41D-03 1.96D-02.
     90 vectors produced by pass  2 Test12= 1.08D-14 1.04D-09 XBig12= 1.16D-04 1.73D-03.
     90 vectors produced by pass  3 Test12= 1.08D-14 1.04D-09 XBig12= 9.15D-07 1.28D-04.
     90 vectors produced by pass  4 Test12= 1.08D-14 1.04D-09 XBig12= 5.60D-09 8.08D-06.
     90 vectors produced by pass  5 Test12= 1.08D-14 1.04D-09 XBig12= 3.41D-11 7.72D-07.
     89 vectors produced by pass  6 Test12= 1.08D-14 1.04D-09 XBig12= 1.75D-13 4.26D-08.
     23 vectors produced by pass  7 Test12= 1.08D-14 1.04D-09 XBig12= 9.43D-16 3.32D-09.
 Inverted reduced A of dimension   652 with in-core refinement.
 Isotropic polarizability for W=    0.000000      140.88 Bohr**3.
 End of Minotr Frequency-dependent properties file   721 does not exist.
 End of Minotr Frequency-dependent properties file   722 does not exist.

 **********************************************************************

            Population analysis using the SCF density.

 **********************************************************************

 Orbital symmetries:
       Occupied  (A) (A) (A) (A) (A) (A) (A) (A) (A) (A) (A) (A)
                 (A) (A) (A) (A) (A) (A) (A) (A) (A) (A) (A) (A)
                 (A) (A) (A) (A) (A) (A) (A) (A) (A) (A) (A) (A)
                 (A) (A) (A) (A) (A) (A) (A) (A) (A) (A) (A) (A)
                 (A) (A) (A) (A) (A) (A) (A)
       Virtual   (A) (A) (A) (A) (A) (A) (A) (A) (A) (A) (A) (A)
                 (A) (A) (A) (A) (A) (A) (A) (A) (A) (A) (A) (A)
                 (A) (A) (A) (A) (A) (A) (A) (A) (A) (A) (A) (A)
                 (A) (A) (A) (A) (A) (A) (A) (A) (A) (A) (A) (A)
                 (A) (A) (A) (A) (A) (A) (A) (A) (A) (A) (A) (A)
                 (A) (A) (A) (A) (A) (A) (A) (A) (A) (A) (A) (A)
                 (A) (A) (A) (A) (A) (A) (A) (A) (A) (A) (A) (A)
                 (A) (A) (A) (A) (A) (A) (A) (A) (A) (A) (A) (A)
                 (A) (A) (A) (A) (A) (A) (A) (A) (A) (A) (A) (A)
                 (A) (A) (A) (A) (A) (A) (A) (A) (A) (A) (A) (A)
                 (A) (A) (A) (A) (A) (A) (A) (A) (A) (A) (A) (A)
                 (A) (A) (A) (A) (A) (A) (A) (A) (A) (A) (A) (A)
                 (A) (A) (A) (A) (A) (A) (A) (A) (A) (A) (A) (A)
                 (A) (A) (A) (A) (A) (A) (A) (A) (A) (A) (A) (A)
                 (A) (A) (A) (A) (A) (A) (A) (A) (A) (A) (A) (A)
                 (A) (A) (A) (A) (A) (A) (A) (A)
 The electronic state is 1-A.
 Alpha  occ. eigenvalues --  -20.57912 -20.53530 -11.35081 -11.34239 -11.26469
 Alpha  occ. eigenvalues --  -11.26163 -11.26135 -11.26048 -11.25733 -11.25390
 Alpha  occ. eigenvalues --  -11.25280 -11.25242 -11.25073 -11.22919 -11.22844
 Alpha  occ. eigenvalues --   -1.46998  -1.36423  -1.16815  -1.14826  -1.07424
 Alpha  occ. eigenvalues --   -1.04259  -1.03020  -0.98300  -0.97103  -0.90741
 Alpha  occ. eigenvalues --   -0.86054  -0.84208  -0.79454  -0.76809  -0.72998
 Alpha  occ. eigenvalues --   -0.70859  -0.68489  -0.67551  -0.66655  -0.64093
 Alpha  occ. eigenvalues --   -0.62111  -0.60846  -0.60297  -0.59426  -0.59075
 Alpha  occ. eigenvalues --   -0.57436  -0.55682  -0.53896  -0.53111  -0.52173
 Alpha  occ. eigenvalues --   -0.50359  -0.49868  -0.49642  -0.48744  -0.46740
 Alpha  occ. eigenvalues --   -0.41584  -0.38744  -0.35401  -0.34639  -0.34364
 Alpha virt. eigenvalues --    0.06527   0.11818   0.12346   0.13720   0.14940
 Alpha virt. eigenvalues --    0.16767   0.17780   0.19061   0.19202   0.19773
 Alpha virt. eigenvalues --    0.21091   0.21145   0.21885   0.24225   0.24449
 Alpha virt. eigenvalues --    0.25567   0.25665   0.26822   0.29005   0.31601
 Alpha virt. eigenvalues --    0.33309   0.33529   0.35116   0.35970   0.36586
 Alpha virt. eigenvalues --    0.38455   0.39818   0.40466   0.42787   0.43659
 Alpha virt. eigenvalues --    0.44685   0.44993   0.45314   0.46168   0.50029
 Alpha virt. eigenvalues --    0.52326   0.52866   0.54926   0.55850   0.56190
 Alpha virt. eigenvalues --    0.56824   0.57982   0.59084   0.59580   0.60023
 Alpha virt. eigenvalues --    0.61495   0.61736   0.63116   0.63385   0.63730
 Alpha virt. eigenvalues --    0.64677   0.65059   0.65877   0.67782   0.69553
 Alpha virt. eigenvalues --    0.71005   0.72087   0.72637   0.74310   0.76022
 Alpha virt. eigenvalues --    0.77277   0.78142   0.79244   0.80258   0.80735
 Alpha virt. eigenvalues --    0.81288   0.81565   0.82008   0.82413   0.83042
 Alpha virt. eigenvalues --    0.83442   0.84002   0.84377   0.85623   0.86155
 Alpha virt. eigenvalues --    0.86977   0.87270   0.88490   0.90526   0.91540
 Alpha virt. eigenvalues --    0.92047   0.94019   0.95137   0.96005   0.96722
 Alpha virt. eigenvalues --    0.99249   1.00899   1.03573   1.04436   1.07118
 Alpha virt. eigenvalues --    1.09264   1.10785   1.13513   1.14356   1.17266
 Alpha virt. eigenvalues --    1.19836   1.21017   1.21679   1.24174   1.25485
 Alpha virt. eigenvalues --    1.25905   1.28297   1.32519   1.33873   1.37917
 Alpha virt. eigenvalues --    1.40282   1.43348   1.46846   1.49966   1.50803
 Alpha virt. eigenvalues --    1.97709   2.04000   2.53179   2.55459   2.55905
 Alpha virt. eigenvalues --    2.57936   2.60161   2.61035   2.63219   2.63707
 Alpha virt. eigenvalues --    2.64880   2.66360   2.68016   2.68429   2.68680
 Alpha virt. eigenvalues --    2.73428   2.80022   2.88765   2.89142   2.92467
 Alpha virt. eigenvalues --    2.95053   2.97562   3.02954   3.06481   3.07615
 Alpha virt. eigenvalues --    3.10293   3.13549   3.15968   3.20124   3.21485
 Alpha virt. eigenvalues --    3.23937   3.25265   3.26481   3.27874   3.29192
 Alpha virt. eigenvalues --    3.30487   3.30986   3.31590   3.33715   3.36462
 Alpha virt. eigenvalues --    3.38692   3.39375   3.43890   3.49398   3.50751
 Alpha virt. eigenvalues --    3.53381   3.54546   3.55021   3.57354   3.61158
 Alpha virt. eigenvalues --    3.63354   3.65499   3.68760   3.70118   3.73080
 Alpha virt. eigenvalues --    3.76327   3.87551   5.43328   5.47614   5.52297
 Alpha virt. eigenvalues --    5.52788   5.58741   5.70402  24.26646  24.42975
 Alpha virt. eigenvalues --   24.49079  24.50180  24.56587  24.61582  24.70780
 Alpha virt. eigenvalues --   24.75128  24.76699  24.77821  24.78950  24.84922
 Alpha virt. eigenvalues --   25.01961  51.62472  51.63181
          Condensed to atoms (all electrons):
              1          2          3          4          5          6
     1  C    5.073287   0.462379  -0.065715  -0.023769  -0.074418   0.499438
     2  C    0.462379   5.087043   0.403766  -0.106700  -0.023660  -0.095497
     3  C   -0.065715   0.403766   5.837100   0.441287  -0.061035  -0.009612
     4  C   -0.023769  -0.106700   0.441287   5.085353   0.437819  -0.082059
     5  C   -0.074418  -0.023660  -0.061035   0.437819   5.098122   0.479286
     6  C    0.499438  -0.095497  -0.009612  -0.082059   0.479286   4.997031
     7  H    0.397393  -0.035896   0.005495  -0.000192   0.005376  -0.037350
     8  H   -0.029280   0.380238  -0.048138   0.003546   0.000115   0.004236
     9  H   -0.000425   0.004139  -0.040728   0.398349  -0.041576   0.004601
    10  H    0.005731  -0.000273   0.005958  -0.037759   0.400202  -0.040607
    11  H   -0.041399   0.007581  -0.001491   0.006855  -0.041333   0.399162
    12  C    0.007392   0.000482   0.002599  -0.042498   0.007053   0.001016
    13  C    0.000060   0.018890  -0.190417   0.013648  -0.000588   0.000091
    14  H   -0.000052  -0.007439   0.013136   0.000013  -0.000013   0.000004
    15  O   -0.000104   0.004360  -0.154582   0.011076   0.000625   0.000005
    16  O    0.000000  -0.000006   0.000006   0.000000   0.000000   0.000000
    17  H    0.000000   0.000008  -0.000015  -0.000001   0.000000   0.000000
    18  C   -0.000087   0.000095   0.015394  -0.000522   0.000008   0.000002
    19  C    0.000004   0.000570  -0.002236   0.000009   0.000000   0.000000
    20  C   -0.000003  -0.000154   0.000308   0.000001   0.000000   0.000000
    21  H    0.000000  -0.000005   0.000018   0.000000   0.000000   0.000000
    22  H    0.000012   0.000327  -0.000085  -0.000003   0.000000  -0.000001
    23  H    0.000000   0.000002  -0.000012   0.000000   0.000000   0.000000
    24  C    0.000004  -0.000486  -0.000120   0.000010   0.000000   0.000000
    25  H    0.000001  -0.000001  -0.000019   0.000000   0.000000   0.000000
    26  H    0.000100   0.003221  -0.001934   0.000018  -0.000001   0.000002
    27  H   -0.000004  -0.000092   0.000144   0.000000   0.000000   0.000000
    28  C    0.000000  -0.000006   0.000023   0.000000   0.000000   0.000000
    29  H    0.000000   0.000000  -0.000001   0.000000   0.000000   0.000000
    30  H    0.000000   0.000000   0.000000   0.000000   0.000000   0.000000
    31  H    0.000000   0.000000  -0.000001   0.000000   0.000000   0.000000
              7          8          9         10         11         12
     1  C    0.397393  -0.029280  -0.000425   0.005731  -0.041399   0.007392
     2  C   -0.035896   0.380238   0.004139  -0.000273   0.007581   0.000482
     3  C    0.005495  -0.048138  -0.040728   0.005958  -0.001491   0.002599
     4  C   -0.000192   0.003546   0.398349  -0.037759   0.006855  -0.042498
     5  C    0.005376   0.000115  -0.041576   0.400202  -0.041333   0.007053
     6  C   -0.037350   0.004236   0.004601  -0.040607   0.399162   0.001016
     7  H    0.508321  -0.003063   0.000012  -0.000201  -0.003937  -0.000296
     8  H   -0.003063   0.506366  -0.000185   0.000012  -0.000179   0.001001
     9  H    0.000012  -0.000185   0.453450  -0.003472  -0.000119   0.000219
    10  H   -0.000201   0.000012  -0.003472   0.504458  -0.004012  -0.000322
    11  H   -0.003937  -0.000179  -0.000119  -0.004012   0.509520  -0.000027
    12  C   -0.000296   0.001001   0.000219  -0.000322  -0.000027   5.084284
    13  C    0.000043   0.004209   0.002210  -0.000004   0.000000  -0.019931
    14  H    0.000033  -0.008105  -0.000139   0.000000   0.000000  -0.067869
    15  O    0.000001  -0.000085   0.012079  -0.000029   0.000000   0.652546
    16  O    0.000000  -0.000015   0.000000   0.000000   0.000000  -0.005893
    17  H    0.000000   0.000015   0.000000   0.000000   0.000000   0.001771
    18  C    0.000000   0.001556  -0.000069   0.000000   0.000000  -0.060458
    19  C    0.000000  -0.000247   0.000002   0.000000   0.000000   0.031434
    20  C    0.000000  -0.000177   0.000000   0.000000   0.000000  -0.003783
    21  H    0.000000  -0.000005   0.000000   0.000000   0.000000  -0.000556
    22  H   -0.000001   0.000146   0.000001   0.000000   0.000000   0.001061
    23  H    0.000000   0.000024   0.000000   0.000000   0.000000   0.000197
    24  C   -0.000002   0.001670   0.000001   0.000000   0.000000  -0.007399
    25  H    0.000000   0.000068   0.000000   0.000000   0.000000   0.000215
    26  H   -0.000023   0.006607   0.000006   0.000000   0.000000   0.005971
    27  H    0.000000  -0.000185   0.000000   0.000000   0.000000  -0.001094
    28  C    0.000000   0.000000   0.000000   0.000000   0.000000  -0.001427
    29  H    0.000000  -0.000001   0.000000   0.000000   0.000000  -0.000053
    30  H    0.000000  -0.000001   0.000000   0.000000   0.000000  -0.000002
    31  H    0.000000   0.000001   0.000000   0.000000   0.000000   0.000028
             13         14         15         16         17         18
     1  C    0.000060  -0.000052  -0.000104   0.000000   0.000000  -0.000087
     2  C    0.018890  -0.007439   0.004360  -0.000006   0.000008   0.000095
     3  C   -0.190417   0.013136  -0.154582   0.000006  -0.000015   0.015394
     4  C    0.013648   0.000013   0.011076   0.000000  -0.000001  -0.000522
     5  C   -0.000588  -0.000013   0.000625   0.000000   0.000000   0.000008
     6  C    0.000091   0.000004   0.000005   0.000000   0.000000   0.000002
     7  H    0.000043   0.000033   0.000001   0.000000   0.000000   0.000000
     8  H    0.004209  -0.008105  -0.000085  -0.000015   0.000015   0.001556
     9  H    0.002210  -0.000139   0.012079   0.000000   0.000000  -0.000069
    10  H   -0.000004   0.000000  -0.000029   0.000000   0.000000   0.000000
    11  H    0.000000   0.000000   0.000000   0.000000   0.000000   0.000000
    12  C   -0.019931  -0.067869   0.652546  -0.005893   0.001771  -0.060458
    13  C    6.028777   0.372307  -0.157417  -0.027041  -0.001951   0.372975
    14  H    0.372307   0.574218   0.004750   0.005014  -0.002104  -0.092859
    15  O   -0.157417   0.004750   8.143328  -0.000107   0.000054   0.022881
    16  O   -0.027041   0.005014  -0.000107   9.026532   0.232609   0.120934
    17  H   -0.001951  -0.002104   0.000054   0.232609   0.398365  -0.004046
    18  C    0.372975  -0.092859   0.022881   0.120934  -0.004046   5.172955
    19  C   -0.160638  -0.036201  -0.000351  -0.270757   0.051859   0.135275
    20  C   -0.016626   0.010676   0.000072   0.015786  -0.012656  -0.080882
    21  H    0.003159   0.000753   0.000005   0.003435  -0.000212  -0.003557
    22  H    0.005131   0.000956  -0.000044  -0.000758   0.000820  -0.005957
    23  H    0.001080  -0.001893  -0.000001  -0.000508   0.000748   0.008219
    24  C   -0.067127  -0.005843  -0.000071   0.029311  -0.004670  -0.091604
    25  H    0.006225  -0.003732   0.000001  -0.000630   0.000719   0.007211
    26  H   -0.023381  -0.038582  -0.000214  -0.001421   0.000656   0.000025
    27  H   -0.002044   0.006287   0.000014   0.002267  -0.001040   0.001071
    28  C    0.009508   0.004840  -0.000011  -0.350773  -0.048569  -0.094066
    29  H   -0.001393  -0.000033  -0.000009  -0.130415   0.028080   0.019067
    30  H   -0.000066   0.000077   0.000000   0.021620  -0.007697   0.003736
    31  H   -0.001233  -0.000406  -0.000002  -0.045272   0.003339   0.009019
             19         20         21         22         23         24
     1  C    0.000004  -0.000003   0.000000   0.000012   0.000000   0.000004
     2  C    0.000570  -0.000154  -0.000005   0.000327   0.000002  -0.000486
     3  C   -0.002236   0.000308   0.000018  -0.000085  -0.000012  -0.000120
     4  C    0.000009   0.000001   0.000000  -0.000003   0.000000   0.000010
     5  C    0.000000   0.000000   0.000000   0.000000   0.000000   0.000000
     6  C    0.000000   0.000000   0.000000  -0.000001   0.000000   0.000000
     7  H    0.000000   0.000000   0.000000  -0.000001   0.000000  -0.000002
     8  H   -0.000247  -0.000177  -0.000005   0.000146   0.000024   0.001670
     9  H    0.000002   0.000000   0.000000   0.000001   0.000000   0.000001
    10  H    0.000000   0.000000   0.000000   0.000000   0.000000   0.000000
    11  H    0.000000   0.000000   0.000000   0.000000   0.000000   0.000000
    12  C    0.031434  -0.003783  -0.000556   0.001061   0.000197  -0.007399
    13  C   -0.160638  -0.016626   0.003159   0.005131   0.001080  -0.067127
    14  H   -0.036201   0.010676   0.000753   0.000956  -0.001893  -0.005843
    15  O   -0.000351   0.000072   0.000005  -0.000044  -0.000001  -0.000071
    16  O   -0.270757   0.015786   0.003435  -0.000758  -0.000508   0.029311
    17  H    0.051859  -0.012656  -0.000212   0.000820   0.000748  -0.004670
    18  C    0.135275  -0.080882  -0.003557  -0.005957   0.008219  -0.091604
    19  C    7.147821   0.036751  -0.051373  -0.044450  -0.036304   0.039445
    20  C    0.036751   5.448217   0.382706   0.395301   0.376513  -0.081282
    21  H   -0.051373   0.382706   0.554426  -0.023628  -0.031033   0.011839
    22  H   -0.044450   0.395301  -0.023628   0.506772  -0.023291  -0.004543
    23  H   -0.036304   0.376513  -0.031033  -0.023291   0.541399  -0.010367
    24  C    0.039445  -0.081282   0.011839  -0.004543  -0.010367   5.519883
    25  H   -0.037938  -0.003460  -0.000353  -0.000316   0.002118   0.380842
    26  H   -0.045360  -0.007875  -0.000390   0.001915   0.001292   0.400986
    27  H   -0.057789   0.008266  -0.000289  -0.000331  -0.000295   0.399725
    28  C    0.010274  -0.093056  -0.003321   0.007503  -0.003513  -0.073006
    29  H   -0.078852   0.000820   0.003127  -0.000069  -0.000422   0.007736
    30  H   -0.050275   0.001891   0.000226  -0.000370   0.000075  -0.001990
    31  H   -0.037272   0.004132  -0.000450  -0.000185   0.000172  -0.003036
             25         26         27         28         29         30
     1  C    0.000001   0.000100  -0.000004   0.000000   0.000000   0.000000
     2  C   -0.000001   0.003221  -0.000092  -0.000006   0.000000   0.000000
     3  C   -0.000019  -0.001934   0.000144   0.000023  -0.000001   0.000000
     4  C    0.000000   0.000018   0.000000   0.000000   0.000000   0.000000
     5  C    0.000000  -0.000001   0.000000   0.000000   0.000000   0.000000
     6  C    0.000000   0.000002   0.000000   0.000000   0.000000   0.000000
     7  H    0.000000  -0.000023   0.000000   0.000000   0.000000   0.000000
     8  H    0.000068   0.006607  -0.000185   0.000000  -0.000001  -0.000001
     9  H    0.000000   0.000006   0.000000   0.000000   0.000000   0.000000
    10  H    0.000000   0.000000   0.000000   0.000000   0.000000   0.000000
    11  H    0.000000   0.000000   0.000000   0.000000   0.000000   0.000000
    12  C    0.000215   0.005971  -0.001094  -0.001427  -0.000053  -0.000002
    13  C    0.006225  -0.023381  -0.002044   0.009508  -0.001393  -0.000066
    14  H   -0.003732  -0.038582   0.006287   0.004840  -0.000033   0.000077
    15  O    0.000001  -0.000214   0.000014  -0.000011  -0.000009   0.000000
    16  O   -0.000630  -0.001421   0.002267  -0.350773  -0.130415   0.021620
    17  H    0.000719   0.000656  -0.001040  -0.048569   0.028080  -0.007697
    18  C    0.007211   0.000025   0.001071  -0.094066   0.019067   0.003736
    19  C   -0.037938  -0.045360  -0.057789   0.010274  -0.078852  -0.050275
    20  C   -0.003460  -0.007875   0.008266  -0.093056   0.000820   0.001891
    21  H   -0.000353  -0.000390  -0.000289  -0.003321   0.003127   0.000226
    22  H   -0.000316   0.001915  -0.000331   0.007503  -0.000069  -0.000370
    23  H    0.002118   0.001292  -0.000295  -0.003513  -0.000422   0.000075
    24  C    0.380842   0.400986   0.399725  -0.073006   0.007736  -0.001990
    25  H    0.534415  -0.020572  -0.023706  -0.007826  -0.000151  -0.000569
    26  H   -0.020572   0.612144  -0.031210   0.005337  -0.000346  -0.000365
    27  H   -0.023706  -0.031210   0.503423  -0.000918  -0.000056   0.000610
    28  C   -0.007826   0.005337  -0.000918   5.916683   0.407528   0.368198
    29  H   -0.000151  -0.000346  -0.000056   0.407528   0.695081  -0.024334
    30  H   -0.000569  -0.000365   0.000610   0.368198  -0.024334   0.565784
    31  H    0.000714   0.000375   0.001342   0.399947  -0.023640  -0.026133
             31
     1  C    0.000000
     2  C    0.000000
     3  C   -0.000001
     4  C    0.000000
     5  C    0.000000
     6  C    0.000000
     7  H    0.000000
     8  H    0.000001
     9  H    0.000000
    10  H    0.000000
    11  H    0.000000
    12  C    0.000028
    13  C   -0.001233
    14  H   -0.000406
    15  O   -0.000002
    16  O   -0.045272
    17  H    0.003339
    18  C    0.009019
    19  C   -0.037272
    20  C    0.004132
    21  H   -0.000450
    22  H   -0.000185
    23  H    0.000172
    24  C   -0.003036
    25  H    0.000714
    26  H    0.000375
    27  H    0.001342
    28  C    0.399947
    29  H   -0.023640
    30  H   -0.026133
    31  H    0.445119
 Mulliken atomic charges:
              1
     1  C   -0.210542
     2  C   -0.102887
     3  C   -0.149095
     4  C   -0.104482
     5  C   -0.185982
     6  C   -0.119748
     7  H    0.164285
     8  H    0.179857
     9  H    0.211643
    10  H    0.170316
    11  H    0.169379
    12  C    0.414342
    13  C   -0.168455
    14  H    0.272206
    15  O   -0.538768
    16  O   -0.623917
    17  H    0.363918
    18  C    0.543683
    19  C   -0.543400
    20  C   -0.381489
    21  H    0.155478
    22  H    0.184087
    23  H    0.175799
    24  C   -0.439905
    25  H    0.166743
    26  H    0.133021
    27  H    0.195902
    28  C   -0.453349
    29  H    0.098336
    30  H    0.149586
    31  H    0.273439
 Sum of Mulliken atomic charges =   0.00000
 Mulliken charges with hydrogens summed into heavy atoms:
              1
     1  C   -0.046257
     2  C    0.076970
     3  C   -0.149095
     4  C    0.107162
     5  C   -0.015666
     6  C    0.049632
    12  C    0.414342
    13  C    0.103751
    15  O   -0.538768
    16  O   -0.259999
    18  C    0.543683
    19  C   -0.543400
    20  C    0.133874
    24  C    0.055761
    28  C    0.068012
 Sum of Mulliken charges with hydrogens summed into heavy atoms =   0.00000
 APT atomic charges:
              1
     1  C   -0.092827
     2  C    0.000569
     3  C   -0.235407
     4  C   -0.013708
     5  C   -0.071081
     6  C    0.028456
     7  H    0.027602
     8  H    0.031617
     9  H    0.089542
    10  H    0.025228
    11  H    0.028018
    12  C    1.232268
    13  C   -0.449180
    14  H    0.104085
    15  O   -0.914877
    16  O   -0.874783
    17  H    0.562760
    18  C    0.426551
    19  C    0.108571
    20  C    0.023821
    21  H   -0.025823
    22  H    0.001307
    23  H   -0.025899
    24  C    0.038447
    25  H   -0.022959
    26  H   -0.008633
    27  H   -0.015389
    28  C    0.152473
    29  H   -0.087629
    30  H   -0.077719
    31  H    0.034597
 Sum of APT charges=   0.00000
 APT Atomic charges with hydrogens summed into heavy atoms:
              1
     1  C   -0.065225
     2  C    0.032186
     3  C   -0.235407
     4  C    0.075834
     5  C   -0.045853
     6  C    0.056474
     7  H    0.000000
     8  H    0.000000
     9  H    0.000000
    10  H    0.000000
    11  H    0.000000
    12  C    1.232268
    13  C   -0.345095
    14  H    0.000000
    15  O   -0.914877
    16  O   -0.312024
    17  H    0.000000
    18  C    0.426551
    19  C    0.108571
    20  C   -0.026593
    21  H    0.000000
    22  H    0.000000
    23  H    0.000000
    24  C   -0.008534
    25  H    0.000000
    26  H    0.000000
    27  H    0.000000
    28  C    0.021722
    29  H    0.000000
    30  H    0.000000
    31  H    0.000000
 Sum of APT charges=   0.00000
 Electronic spatial extent (au):  <R**2>=           4317.2213
 Charge=              0.0000 electrons
 Dipole moment (field-independent basis, Debye):
    X=              1.0845    Y=             -5.1632    Z=              0.7866  Tot=              5.3342
 Quadrupole moment (field-independent basis, Debye-Ang):
   XX=            -71.4557   YY=           -100.6511   ZZ=            -95.6545
   XY=             -1.1855   XZ=              3.2030   YZ=              2.2104
 Traceless Quadrupole moment (field-independent basis, Debye-Ang):
   XX=             17.7981   YY=            -11.3973   ZZ=             -6.4007
   XY=             -1.1855   XZ=              3.2030   YZ=              2.2104
 Octapole moment (field-independent basis, Debye-Ang**2):
  XXX=             -4.1738  YYY=            -29.0619  ZZZ=             -3.1721  XYY=            -12.3961
  XXY=              2.2284  XXZ=             12.9918  XZZ=             22.9338  YZZ=              6.5055
  YYZ=              2.2143  XYZ=              5.8031
 Hexadecapole moment (field-independent basis, Debye-Ang**3):
 XXXX=          -4253.0587 YYYY=           -920.2427 ZZZZ=           -285.3693 XXXY=             29.9949
 XXXZ=             26.4755 YYYX=              6.9980 YYYZ=              3.2611 ZZZX=            -13.1002
 ZZZY=              0.5303 XXYY=           -901.3797 XXZZ=           -898.0176 YYZZ=           -199.6699
 XXYZ=             32.0016 YYXZ=             13.0827 ZZXY=              1.1244
 N-N= 9.600678634566D+02 E-N=-3.441499009400D+03  KE= 6.520785148857D+02
  Exact polarizability: 204.246   0.458 138.396  -0.297   3.252  79.996
 Approx polarizability: 156.305   4.277 142.635  -0.926   3.357  78.217
 Calling FoFJK, ICntrl=    100127 FMM=F ISym2X=0 I1Cent= 0 IOpClX= 0 NMat=1 NMatS=1 NMatT=0.
 Full mass-weighted force constant matrix:
 Low frequencies --- -885.5687 -419.5699 -352.2467 -214.3962 -148.2329   -0.0011
 Low frequencies ---   -0.0008   -0.0003   22.7337
 ******    5 imaginary frequencies (negative Signs) ****** 
 Diagonal vibrational polarizability:
       52.3990273      15.5609592      16.4530384
 Diagonal vibrational hyperpolarizability:
      -67.1530469     -13.9636565      32.7518746
 Harmonic frequencies (cm**-1), IR intensities (KM/Mole), Raman scattering
 activities (A**4/AMU), depolarization ratios for plane and unpolarized
 incident light, reduced masses (AMU), force constants (mDyne/A),
 and normal coordinates:
                     1                      2                      3
                     A                      A                      A
 Frequencies --  -881.4390              -407.1569              -326.7122
 Red. masses --     1.2455                 2.5627                 1.4628
 Frc consts  --     0.5701                 0.2503                 0.0920
 IR Inten    --    24.0606                 1.0649                 8.7770
 Raman Activ --     0.4973                 0.3176                 0.8670
 Depolar (P) --     0.7328                 0.6579                 0.5937
 Depolar (U) --     0.8458                 0.7936                 0.7450
  Atom  AN      X      Y      Z        X      Y      Z        X      Y      Z
     1   6     0.00   0.00   0.00     0.01  -0.02   0.02     0.01  -0.01   0.03
     2   6     0.00   0.00   0.00     0.01  -0.01   0.01     0.01  -0.01   0.02
     3   6     0.00   0.00   0.00     0.00  -0.01  -0.01     0.00   0.00   0.00
     4   6     0.00   0.00   0.01     0.00  -0.02  -0.02     0.00  -0.01  -0.03
     5   6     0.00   0.00   0.01     0.00  -0.02  -0.01     0.00  -0.01  -0.02
     6   6     0.00   0.00   0.00     0.01  -0.03   0.01     0.00  -0.01   0.01
     7   1     0.00   0.00  -0.01     0.02  -0.02   0.04     0.01  -0.01   0.05
     8   1     0.00   0.00  -0.01     0.02  -0.01   0.03     0.01   0.00   0.04
     9   1     0.00   0.00   0.01    -0.01  -0.01  -0.03    -0.01  -0.01  -0.05
    10   1     0.00   0.00   0.01     0.00  -0.03  -0.02     0.00  -0.01  -0.04
    11   1     0.00   0.00   0.00     0.01  -0.03   0.01     0.01  -0.02   0.02
    12   6     0.00   0.00   0.01     0.00   0.02  -0.02     0.00   0.01   0.02
    13   6     0.01   0.01   0.00     0.02   0.05  -0.06     0.01   0.02   0.10
    14   1     0.01   0.01   0.00     0.01   0.07  -0.32     0.03   0.01   0.31
    15   8     0.00   0.00   0.01    -0.02   0.02  -0.02    -0.01   0.01  -0.05
    16   8    -0.01   0.01  -0.10     0.11   0.06   0.19     0.05   0.00   0.05
    17   1     0.26   0.24  -0.31     0.18   0.09   0.15     0.05   0.01   0.06
    18   6     0.02   0.01   0.01     0.03   0.04   0.01     0.01   0.03   0.03
    19   6     0.00   0.00  -0.01    -0.04   0.01  -0.08    -0.03  -0.01  -0.01
    20   6     0.00  -0.01  -0.01     0.01   0.06  -0.03    -0.01   0.01   0.00
    21   1     0.00  -0.01  -0.01     0.00   0.09  -0.06    -0.06   0.06  -0.03
    22   1     0.00  -0.01  -0.01     0.01   0.06  -0.02     0.01  -0.04   0.01
    23   1     0.00  -0.01  -0.01     0.02   0.08  -0.01     0.05   0.06   0.03
    24   6     0.00   0.01  -0.01    -0.08  -0.06   0.06    -0.01   0.04  -0.08
    25   1     0.00   0.01  -0.01     0.06   0.03  -0.02    -0.26  -0.11   0.20
    26   1    -0.01   0.01  -0.03     0.02  -0.21   0.31    -0.18   0.31  -0.54
    27   1     0.00   0.01  -0.01    -0.32  -0.10   0.04     0.48  -0.03  -0.10
    28   6    -0.02  -0.02   0.08    -0.09  -0.08  -0.12    -0.04  -0.06  -0.04
    29   1    -0.27  -0.39   0.67    -0.09  -0.42   0.20    -0.01  -0.13   0.01
    30   1    -0.04  -0.05   0.01    -0.17  -0.18  -0.33    -0.07  -0.09  -0.09
    31   1     0.15   0.17   0.15    -0.05   0.15  -0.04    -0.04  -0.02  -0.02
                     4                      5                      6
                     A                      A                      A
 Frequencies --  -189.9949              -123.5239                76.7966
 Red. masses --     2.1467                 1.5267                 3.8280
 Frc consts  --     0.0457                 0.0137                 0.0133
 IR Inten    --     3.6861                 0.8852                 2.1998
 Raman Activ --     0.6240                 1.5251                 0.6797
 Depolar (P) --     0.4045                 0.6576                 0.6015
 Depolar (U) --     0.5760                 0.7934                 0.7512
  Atom  AN      X      Y      Z        X      Y      Z        X      Y      Z
     1   6    -0.04   0.02   0.05    -0.01   0.00   0.07     0.04  -0.01   0.04
     2   6    -0.03   0.00   0.04    -0.01  -0.01   0.05     0.03   0.01  -0.05
     3   6     0.00   0.00   0.00     0.00   0.00  -0.01     0.01   0.01  -0.05
     4   6     0.01   0.02  -0.02     0.00   0.01  -0.06     0.00  -0.01   0.06
     5   6     0.00   0.05  -0.01     0.00   0.02  -0.04     0.01  -0.04   0.15
     6   6    -0.02   0.04   0.03    -0.01   0.01   0.02     0.03  -0.04   0.14
     7   1    -0.06   0.02   0.08    -0.02   0.00   0.12     0.05  -0.02   0.03
     8   1    -0.04  -0.01   0.06    -0.01  -0.01   0.09     0.03   0.02  -0.13
     9   1     0.03   0.02  -0.05     0.01   0.01  -0.10    -0.01  -0.01   0.06
    10   1     0.01   0.06  -0.02     0.00   0.02  -0.07     0.01  -0.05   0.24
    11   1    -0.03   0.06   0.04    -0.01   0.02   0.04     0.04  -0.05   0.22
    12   6     0.01  -0.04  -0.02     0.00  -0.01  -0.02     0.00   0.03  -0.14
    13   6    -0.01  -0.07  -0.03     0.00  -0.02   0.01     0.00   0.04  -0.14
    14   1    -0.02  -0.07  -0.13     0.00  -0.02   0.01     0.00   0.04  -0.19
    15   8     0.04  -0.03  -0.04     0.01  -0.01  -0.06    -0.01   0.03  -0.15
    16   8    -0.10   0.03   0.12    -0.05   0.02   0.07     0.08  -0.01   0.08
    17   1    -0.07  -0.02   0.06    -0.02   0.01   0.03    -0.06  -0.08   0.19
    18   6    -0.02  -0.07  -0.02    -0.01  -0.02   0.03     0.01   0.04  -0.03
    19   6     0.04  -0.03  -0.07     0.02  -0.01  -0.01    -0.03   0.01   0.02
    20   6     0.02   0.00  -0.05     0.05  -0.07  -0.03    -0.22  -0.09  -0.02
    21   1    -0.40   0.17  -0.03     0.56  -0.29  -0.04    -0.32  -0.14   0.09
    22   1     0.08  -0.38  -0.19    -0.01   0.38   0.14    -0.26  -0.11  -0.18
    23   1     0.35   0.25   0.09    -0.33  -0.37  -0.20    -0.25  -0.11   0.00
    24   6     0.09  -0.06  -0.03     0.01   0.03  -0.05     0.03   0.07  -0.09
    25   1     0.04  -0.08   0.07     0.03   0.03  -0.11     0.08   0.09  -0.17
    26   1     0.07  -0.01  -0.08     0.02   0.00  -0.03     0.05   0.01  -0.10
    27   1     0.16  -0.13  -0.06    -0.03   0.08  -0.03     0.01   0.18  -0.05
    28   6     0.04   0.11   0.02     0.01   0.05   0.01     0.03  -0.03   0.17
    29   1    -0.10   0.00   0.25    -0.05  -0.01   0.12     0.05   0.06   0.06
    30   1     0.09   0.14  -0.07     0.03   0.06  -0.04     0.00  -0.03   0.28
    31   1     0.09   0.29   0.09     0.02   0.14   0.04     0.11  -0.10   0.14
                     7                      8                      9
                     A                      A                      A
 Frequencies --    96.2902               152.2479               190.6128
 Red. masses --     2.1545                 2.8205                 4.8635
 Frc consts  --     0.0118                 0.0385                 0.1041
 IR Inten    --     0.5766                 2.2180                 1.5899
 Raman Activ --     3.9542                 0.5465                 2.0109
 Depolar (P) --     0.7203                 0.7185                 0.3395
 Depolar (U) --     0.8374                 0.8362                 0.5069
  Atom  AN      X      Y      Z        X      Y      Z        X      Y      Z
     1   6     0.03  -0.01   0.12     0.01  -0.01   0.06     0.24   0.00  -0.01
     2   6     0.02  -0.01   0.14     0.01   0.00   0.10     0.17   0.12   0.00
     3   6     0.01   0.00   0.02     0.00   0.00   0.05     0.05   0.12   0.01
     4   6     0.00   0.00  -0.11     0.00   0.00  -0.03    -0.01   0.03   0.00
     5   6     0.00  -0.01  -0.13     0.00   0.00  -0.07     0.05  -0.09  -0.01
     6   6     0.02  -0.01  -0.02     0.01  -0.01  -0.04     0.18  -0.10  -0.01
     7   1     0.04  -0.02   0.21     0.02  -0.01   0.10     0.34  -0.01  -0.01
     8   1     0.03  -0.01   0.26     0.01  -0.01   0.18     0.21   0.18   0.01
     9   1    -0.01   0.01  -0.19    -0.01   0.00  -0.05    -0.10   0.04   0.00
    10   1    -0.01  -0.01  -0.24    -0.01   0.00  -0.14    -0.01  -0.17  -0.02
    11   1     0.02  -0.02  -0.04     0.01  -0.01  -0.08     0.22  -0.18  -0.02
    12   6     0.00   0.01   0.04     0.00   0.01   0.04     0.01   0.12   0.00
    13   6     0.01   0.02   0.04    -0.01   0.01  -0.15    -0.08   0.02   0.01
    14   1     0.01   0.02   0.00    -0.02   0.02  -0.25    -0.13   0.03   0.00
    15   8     0.00   0.01   0.05     0.00   0.00   0.19     0.07   0.13  -0.01
    16   8     0.03  -0.01  -0.04     0.03   0.00  -0.01    -0.21  -0.02   0.01
    17   1     0.00   0.00   0.00    -0.06  -0.07   0.06    -0.13  -0.04  -0.08
    18   6     0.00   0.03   0.02     0.00   0.00  -0.14    -0.07  -0.08   0.01
    19   6    -0.01   0.01   0.00    -0.01   0.00  -0.07    -0.07  -0.07  -0.01
    20   6    -0.05  -0.09  -0.04    -0.14   0.08  -0.03    -0.05  -0.10  -0.02
    21   1    -0.32  -0.04   0.05     0.07   0.02  -0.07    -0.04  -0.12   0.01
    22   1    -0.01  -0.36  -0.16    -0.21   0.38  -0.03    -0.05  -0.11  -0.02
    23   1     0.15   0.06  -0.02    -0.39  -0.09   0.01    -0.05  -0.10  -0.05
    24   6    -0.05   0.09  -0.07     0.08  -0.07  -0.01    -0.12  -0.11   0.06
    25   1     0.09   0.15  -0.36    -0.04  -0.12   0.27    -0.24  -0.17   0.21
    26   1     0.04  -0.07   0.13     0.00   0.05  -0.19    -0.16   0.03   0.02
    27   1    -0.34   0.27  -0.02     0.35  -0.25  -0.07    -0.01  -0.24   0.01
    28   6     0.00  -0.02   0.01     0.03   0.00   0.05    -0.09   0.03  -0.03
    29   1     0.04   0.04  -0.07     0.01   0.04   0.02    -0.13   0.02   0.03
    30   1    -0.01  -0.02   0.06     0.02   0.00   0.11    -0.02   0.07  -0.08
    31   1     0.00  -0.09  -0.01     0.09  -0.02   0.04    -0.12   0.10  -0.01
                    10                     11                     12
                     A                      A                      A
 Frequencies --   224.6587               254.8186               308.8940
 Red. masses --     4.9384                 4.2494                 2.9989
 Frc consts  --     0.1469                 0.1626                 0.1686
 IR Inten    --     0.5805                 1.0798                 4.6585
 Raman Activ --     4.1309                 2.7954                 0.6778
 Depolar (P) --     0.7500                 0.1827                 0.6403
 Depolar (U) --     0.8571                 0.3089                 0.7807
  Atom  AN      X      Y      Z        X      Y      Z        X      Y      Z
     1   6     0.00   0.00  -0.08     0.02  -0.01  -0.01     0.03   0.01  -0.01
     2   6     0.01  -0.02   0.22     0.06  -0.10  -0.05    -0.02   0.09  -0.01
     3   6     0.02  -0.03   0.27     0.12  -0.10  -0.03    -0.06   0.09   0.01
     4   6     0.03  -0.02   0.26     0.20  -0.02  -0.02    -0.12   0.03   0.01
     5   6     0.02   0.01  -0.01     0.16   0.08   0.01    -0.09  -0.07   0.01
     6   6     0.00   0.02  -0.26     0.08   0.09   0.03    -0.02  -0.07   0.00
     7   1    -0.01   0.01  -0.21    -0.08   0.00  -0.01     0.11   0.00  -0.03
     8   1     0.01  -0.03   0.31     0.02  -0.15  -0.08     0.01   0.14  -0.03
     9   1     0.04  -0.03   0.36     0.30  -0.02  -0.02    -0.21   0.04   0.01
    10   1     0.02   0.02  -0.09     0.20   0.14   0.03    -0.13  -0.12   0.01
    11   1    -0.01   0.05  -0.58     0.05   0.16   0.07     0.01  -0.13   0.01
    12   6     0.01  -0.01   0.02     0.06  -0.11   0.02     0.02  -0.01   0.02
    13   6     0.00  -0.01  -0.01    -0.03  -0.07   0.04    -0.01  -0.10   0.04
    14   1     0.00  -0.01  -0.02     0.00  -0.07   0.11     0.01  -0.10   0.05
    15   8     0.00   0.00  -0.24     0.08  -0.11   0.02     0.18  -0.02   0.00
    16   8     0.00   0.01   0.01    -0.12   0.04   0.01     0.01  -0.05   0.03
    17   1    -0.03  -0.02   0.02    -0.06   0.03  -0.04    -0.02  -0.09   0.05
    18   6    -0.01   0.00  -0.03    -0.07   0.01   0.01    -0.02  -0.06  -0.02
    19   6    -0.01   0.00  -0.03    -0.10   0.03   0.01     0.00  -0.04  -0.03
    20   6    -0.05   0.02  -0.02    -0.16   0.14   0.05     0.01   0.17   0.05
    21   1    -0.04   0.01  -0.02    -0.11   0.20  -0.04     0.08   0.31  -0.15
    22   1    -0.07   0.07  -0.03    -0.19   0.28   0.06     0.01   0.31   0.16
    23   1    -0.10  -0.01   0.01    -0.24   0.10   0.17    -0.03   0.17   0.23
    24   6    -0.01   0.00  -0.03    -0.09   0.06  -0.06     0.00   0.04  -0.13
    25   1     0.03   0.02  -0.07     0.00   0.11  -0.23     0.11   0.09  -0.42
    26   1     0.01  -0.03   0.01    -0.05  -0.05  -0.06     0.05  -0.09  -0.06
    27   1    -0.06   0.03  -0.02    -0.18   0.21  -0.02    -0.18   0.28  -0.05
    28   6     0.00   0.01   0.01    -0.13   0.01  -0.03     0.02  -0.05   0.03
    29   1    -0.01   0.01   0.02    -0.10  -0.01  -0.03    -0.01  -0.06   0.06
    30   1     0.00   0.01   0.03    -0.14   0.00  -0.06     0.01  -0.06   0.05
    31   1     0.02   0.01   0.02    -0.17   0.02  -0.03     0.07  -0.02   0.04
                    13                     14                     15
                     A                      A                      A
 Frequencies --   360.7336               386.7768               445.8714
 Red. masses --     3.6983                 3.4927                 3.4037
 Frc consts  --     0.2835                 0.3078                 0.3987
 IR Inten    --     2.6991                 1.4307                 8.5182
 Raman Activ --     1.2616                 3.3960                 2.9484
 Depolar (P) --     0.7484                 0.7500                 0.5883
 Depolar (U) --     0.8561                 0.8571                 0.7408
  Atom  AN      X      Y      Z        X      Y      Z        X      Y      Z
     1   6    -0.03   0.00   0.02    -0.04  -0.01  -0.04    -0.08  -0.04   0.02
     2   6    -0.04   0.03   0.03    -0.03  -0.01  -0.06    -0.04  -0.08   0.01
     3   6    -0.02   0.03   0.00     0.00  -0.01   0.02     0.04  -0.05  -0.03
     4   6    -0.06   0.00   0.01    -0.02  -0.02  -0.04     0.04  -0.08   0.02
     5   6    -0.06  -0.03   0.00    -0.03  -0.03  -0.01     0.00  -0.04   0.00
     6   6    -0.05  -0.03  -0.02    -0.05  -0.03   0.05    -0.07  -0.02  -0.02
     7   1     0.00   0.00   0.03    -0.03  -0.01  -0.08    -0.10  -0.04   0.05
     8   1    -0.04   0.03   0.06    -0.04  -0.01  -0.13    -0.08  -0.14   0.03
     9   1    -0.10   0.01   0.02    -0.05  -0.02  -0.06     0.04  -0.08   0.04
    10   1    -0.06  -0.04   0.00    -0.03  -0.01  -0.01     0.04   0.02   0.01
    11   1    -0.05  -0.04  -0.05    -0.04  -0.03   0.12    -0.09   0.02  -0.06
    12   6     0.06  -0.04  -0.05     0.05  -0.02   0.12     0.06   0.05  -0.05
    13   6     0.02  -0.05  -0.08     0.05   0.01   0.25    -0.03   0.08  -0.09
    14   1     0.06  -0.05  -0.11     0.08   0.01   0.29    -0.08   0.09   0.02
    15   8     0.25  -0.06   0.00     0.11  -0.01  -0.06     0.20   0.04   0.03
    16   8    -0.01   0.09  -0.04     0.05   0.05  -0.02     0.01   0.02   0.02
    17   1     0.13   0.22  -0.12    -0.02   0.00   0.03    -0.16  -0.08   0.15
    18   6    -0.01   0.07   0.07     0.03   0.05  -0.04    -0.03   0.06  -0.06
    19   6    -0.03   0.09   0.10     0.04   0.03  -0.11    -0.08   0.03  -0.02
    20   6    -0.06  -0.11   0.04    -0.16  -0.02  -0.13     0.13   0.00  -0.03
    21   1    -0.12  -0.24   0.22    -0.18  -0.11  -0.02     0.19   0.01  -0.07
    22   1    -0.08  -0.19  -0.09    -0.23   0.09  -0.30     0.22  -0.16   0.16
    23   1    -0.07  -0.13  -0.11    -0.31  -0.12  -0.09     0.28   0.09  -0.21
    24   6     0.13   0.05   0.08    -0.06  -0.09   0.07    -0.20   0.01   0.01
    25   1     0.18   0.11   0.25    -0.06  -0.08   0.17    -0.34  -0.08   0.11
    26   1     0.11  -0.01  -0.08    -0.02  -0.04   0.28    -0.24   0.13  -0.06
    27   1     0.30  -0.01   0.07    -0.22  -0.30   0.00    -0.08  -0.07  -0.02
    28   6    -0.15   0.00  -0.11     0.09   0.09   0.00     0.00   0.02   0.14
    29   1    -0.02  -0.08  -0.15     0.03   0.10   0.03    -0.02   0.15   0.02
    30   1    -0.18  -0.04  -0.24     0.11   0.11   0.04    -0.02   0.03   0.33
    31   1    -0.29  -0.04  -0.13     0.15   0.11   0.01     0.13  -0.07   0.11
                    16                     17                     18
                     A                      A                      A
 Frequencies --   462.9159               481.7462               528.3653
 Red. masses --     3.8048                 2.6955                 3.4065
 Frc consts  --     0.4804                 0.3686                 0.5603
 IR Inten    --    32.0496                 0.0765                 2.2393
 Raman Activ --     0.4514                 0.0396                 0.5362
 Depolar (P) --     0.4520                 0.6419                 0.5525
 Depolar (U) --     0.6226                 0.7819                 0.7118
  Atom  AN      X      Y      Z        X      Y      Z        X      Y      Z
     1   6     0.10   0.04  -0.01     0.01  -0.01   0.19    -0.03   0.00  -0.13
     2   6     0.05   0.07  -0.01     0.00   0.01  -0.19    -0.01  -0.02  -0.06
     3   6    -0.06   0.04   0.03     0.00   0.00   0.01     0.03  -0.03   0.29
     4   6    -0.03   0.10   0.00     0.00  -0.01   0.20     0.02  -0.03  -0.06
     5   6     0.01   0.05  -0.01    -0.01   0.01  -0.20     0.01   0.00  -0.13
     6   6     0.11   0.03   0.02     0.00   0.00   0.00    -0.02  -0.01   0.20
     7   1     0.11   0.04  -0.03     0.01  -0.03   0.43    -0.05   0.01  -0.38
     8   1     0.10   0.15  -0.04    -0.01   0.03  -0.48    -0.03  -0.04  -0.30
     9   1    -0.01   0.10  -0.02     0.01  -0.03   0.46     0.02  -0.01  -0.30
    10   1    -0.04  -0.02  -0.03    -0.01   0.03  -0.46     0.02   0.04  -0.39
    11   1     0.13   0.00   0.05     0.00   0.00   0.00    -0.02  -0.01   0.42
    12   6    -0.09  -0.15   0.03     0.00   0.00  -0.01     0.01   0.05   0.12
    13   6    -0.07  -0.11   0.03     0.00   0.00   0.00    -0.03   0.01  -0.07
    14   1     0.04  -0.12   0.05     0.01   0.00   0.04    -0.05   0.01  -0.20
    15   8    -0.03  -0.17  -0.02    -0.01   0.00   0.00     0.02   0.07  -0.05
    16   8     0.11   0.02  -0.01     0.00   0.00   0.00    -0.02   0.00   0.01
    17   1    -0.15   0.03   0.24     0.01   0.00   0.00    -0.02  -0.02   0.00
    18   6    -0.14   0.10  -0.06     0.00   0.00   0.00    -0.01  -0.02  -0.04
    19   6    -0.11   0.09  -0.05     0.00   0.00   0.00    -0.03   0.00   0.02
    20   6     0.09  -0.02  -0.11     0.00   0.00   0.00     0.03  -0.01   0.02
    21   1     0.18  -0.09  -0.07    -0.01   0.00   0.00     0.06  -0.01   0.00
    22   1     0.18  -0.17   0.08    -0.01   0.00  -0.01     0.06  -0.05   0.07
    23   1     0.21   0.04  -0.38    -0.01   0.00   0.01     0.08   0.02  -0.04
    24   6     0.01  -0.02   0.04     0.00   0.00   0.00     0.06   0.02  -0.01
    25   1     0.11   0.07   0.19     0.00   0.00  -0.01     0.11   0.05  -0.02
    26   1     0.03  -0.11   0.03     0.00   0.00   0.01     0.07  -0.03  -0.04
    27   1     0.03  -0.16  -0.01    -0.01   0.00   0.00     0.09   0.05   0.00
    28   6    -0.06  -0.02   0.11     0.00   0.00  -0.01    -0.05  -0.04   0.02
    29   1    -0.05   0.05   0.01     0.00  -0.01   0.01    -0.02  -0.02  -0.03
    30   1    -0.17  -0.07   0.32     0.01   0.00  -0.02    -0.08  -0.05   0.05
    31   1     0.11  -0.16   0.07     0.00   0.01   0.00    -0.06  -0.07   0.01
                    19                     20                     21
                     A                      A                      A
 Frequencies --   585.2187               660.5911               691.1987
 Red. masses --     3.6142                 4.2737                 6.4490
 Frc consts  --     0.7293                 1.0988                 1.8153
 IR Inten    --     2.8197                90.3058                 3.8504
 Raman Activ --     2.6000                18.3575                 8.8440
 Depolar (P) --     0.7499                 0.2182                 0.6979
 Depolar (U) --     0.8571                 0.3583                 0.8220
  Atom  AN      X      Y      Z        X      Y      Z        X      Y      Z
     1   6    -0.04  -0.02   0.05    -0.01   0.07   0.01     0.13   0.32   0.01
     2   6    -0.01  -0.06  -0.02     0.01   0.07   0.00     0.31  -0.10  -0.01
     3   6     0.04  -0.02  -0.11     0.05   0.03  -0.01     0.06  -0.14  -0.01
     4   6     0.05  -0.06   0.00    -0.03  -0.02   0.00    -0.11  -0.30  -0.01
     5   6     0.03  -0.02   0.04    -0.05  -0.02   0.02    -0.33   0.10   0.01
     6   6    -0.04   0.01  -0.06    -0.06  -0.02  -0.01    -0.06   0.14   0.01
     7   1    -0.06  -0.03   0.18     0.06   0.07   0.04    -0.05   0.33   0.01
     8   1    -0.04  -0.12   0.08     0.00   0.06   0.01     0.20  -0.25  -0.02
     9   1     0.07  -0.07   0.11    -0.08  -0.02   0.02     0.06  -0.31  -0.02
    10   1     0.07   0.03   0.16    -0.03   0.01   0.05    -0.24   0.24   0.01
    11   1    -0.06   0.04  -0.10    -0.04  -0.07  -0.03     0.12  -0.22  -0.01
    12   6    -0.01   0.13   0.06     0.11  -0.04   0.02    -0.02   0.00  -0.01
    13   6    -0.08  -0.03   0.16     0.21   0.05   0.04    -0.02  -0.01  -0.01
    14   1    -0.07  -0.05  -0.16     0.29   0.04   0.17    -0.01  -0.01  -0.02
    15   8     0.02   0.17  -0.01    -0.09  -0.04   0.00     0.03  -0.01   0.00
    16   8    -0.02  -0.03   0.00    -0.12   0.18   0.03     0.02  -0.03  -0.01
    17   1    -0.07  -0.02   0.06     0.00  -0.18  -0.22    -0.01   0.04   0.05
    18   6    -0.08  -0.03   0.00     0.18   0.03  -0.16    -0.03   0.00   0.03
    19   6    -0.06   0.03  -0.06    -0.04  -0.04   0.00     0.00   0.00   0.00
    20   6     0.02   0.03  -0.11     0.02  -0.03   0.03     0.00   0.00   0.00
    21   1     0.09   0.03  -0.15     0.07   0.01  -0.03    -0.01   0.00   0.00
    22   1     0.05   0.01   0.01     0.07  -0.09   0.16    -0.01   0.01  -0.01
    23   1     0.06   0.05  -0.19     0.10   0.02  -0.02    -0.01   0.00   0.01
    24   6     0.22  -0.01  -0.01     0.02  -0.14  -0.09     0.00   0.01   0.00
    25   1     0.47   0.17   0.02     0.13  -0.07  -0.19    -0.01   0.00   0.02
    26   1     0.28  -0.17   0.12     0.02  -0.19  -0.05     0.00   0.00   0.00
    27   1     0.11  -0.06  -0.03    -0.08  -0.06  -0.07     0.01   0.00   0.00
    28   6    -0.11  -0.09   0.05    -0.16  -0.07   0.11     0.01   0.02  -0.01
    29   1    -0.05  -0.04  -0.06     0.04   0.13  -0.20    -0.02  -0.01   0.02
    30   1    -0.20  -0.14   0.19    -0.18  -0.03   0.32     0.02   0.01  -0.03
    31   1    -0.03  -0.21   0.01    -0.24  -0.27   0.05     0.03   0.03  -0.01
                    22                     23                     24
                     A                      A                      A
 Frequencies --   729.3537               734.4084               744.7514
 Red. masses --     3.4685                 3.8227                 4.8752
 Frc consts  --     1.0871                 1.2148                 1.5932
 IR Inten    --    19.3479                93.4867                24.0232
 Raman Activ --     8.4648                15.3458                 2.5129
 Depolar (P) --     0.2866                 0.0215                 0.7139
 Depolar (U) --     0.4455                 0.0422                 0.8331
  Atom  AN      X      Y      Z        X      Y      Z        X      Y      Z
     1   6    -0.01   0.00  -0.02     0.01  -0.08   0.01    -0.05   0.19   0.02
     2   6    -0.01   0.01   0.02     0.01  -0.09  -0.04    -0.03   0.21   0.01
     3   6     0.01   0.01   0.01    -0.07  -0.04  -0.01     0.20   0.10   0.00
     4   6     0.01   0.00   0.02    -0.02   0.04  -0.02     0.12  -0.13  -0.01
     5   6     0.01   0.00  -0.03    -0.02   0.05   0.03     0.11  -0.15   0.00
     6   6    -0.01  -0.01   0.03     0.07   0.05  -0.03    -0.21  -0.10  -0.01
     7   1     0.00   0.00  -0.05    -0.10  -0.08   0.10     0.23   0.18   0.01
     8   1     0.00   0.01   0.04     0.05  -0.05   0.00    -0.15   0.04  -0.01
     9   1    -0.01   0.00   0.01     0.06   0.03   0.03    -0.09  -0.12  -0.01
    10   1     0.01   0.01  -0.09    -0.06  -0.01   0.11     0.25   0.06   0.02
    11   1    -0.01   0.00   0.06     0.06   0.07  -0.02    -0.20  -0.11  -0.02
    12   6     0.00   0.00  -0.06    -0.07   0.05   0.09     0.07  -0.01   0.01
    13   6     0.04   0.03  -0.02    -0.02  -0.03   0.03    -0.04  -0.13  -0.01
    14   1     0.11   0.03  -0.35     0.07  -0.05   0.01    -0.07  -0.14   0.08
    15   8     0.00   0.00   0.00     0.04   0.08  -0.01    -0.09  -0.01   0.01
    16   8     0.03  -0.03  -0.06     0.13   0.04  -0.04     0.12  -0.05  -0.03
    17   1     0.04   0.37   0.07    -0.12   0.31   0.31    -0.12   0.33   0.35
    18   6    -0.02   0.11   0.35    -0.03   0.03  -0.17    -0.08  -0.04  -0.05
    19   6    -0.03  -0.03  -0.03    -0.03  -0.04   0.02    -0.03   0.02   0.01
    20   6     0.00   0.02  -0.03     0.00  -0.10   0.24    -0.01  -0.02   0.07
    21   1     0.01   0.16  -0.19     0.03  -0.10   0.23     0.01  -0.07   0.11
    22   1    -0.01   0.12   0.05     0.01  -0.13   0.28     0.00  -0.06   0.09
    23   1     0.00   0.05   0.16     0.03  -0.08   0.20     0.00  -0.02  -0.01
    24   6    -0.01  -0.20  -0.15     0.01  -0.15  -0.12    -0.03  -0.01   0.00
    25   1     0.06  -0.14  -0.03     0.10  -0.11  -0.27     0.00   0.02  -0.02
    26   1    -0.01  -0.25  -0.10     0.00  -0.20  -0.12    -0.04  -0.05  -0.07
    27   1     0.00  -0.29  -0.18    -0.05  -0.01  -0.07    -0.01   0.03   0.01
    28   6    -0.04   0.08   0.03    -0.06   0.15  -0.04    -0.03   0.12  -0.04
    29   1     0.00   0.18  -0.17    -0.14   0.03   0.09    -0.13  -0.01   0.11
    30   1     0.03   0.14   0.23     0.02   0.17  -0.16     0.00   0.11  -0.13
    31   1    -0.02  -0.16  -0.05    -0.02   0.19  -0.02     0.06   0.17  -0.02
                    25                     26                     27
                     A                      A                      A
 Frequencies --   782.2866               793.0083               810.6066
 Red. masses --     2.0495                 1.8987                 2.3200
 Frc consts  --     0.7390                 0.7035                 0.8982
 IR Inten    --    30.1081                82.8416               102.4855
 Raman Activ --     0.9563                 4.7724                 5.1164
 Depolar (P) --     0.7307                 0.4463                 0.1986
 Depolar (U) --     0.8444                 0.6171                 0.3315
  Atom  AN      X      Y      Z        X      Y      Z        X      Y      Z
     1   6     0.00  -0.01   0.16     0.00   0.02   0.00     0.00   0.02   0.00
     2   6     0.00   0.01  -0.09     0.00   0.03  -0.07     0.00   0.02   0.05
     3   6     0.00  -0.01   0.12     0.01   0.01   0.01     0.01   0.01  -0.03
     4   6     0.00   0.01  -0.11     0.01  -0.01  -0.05     0.02  -0.03   0.03
     5   6     0.00  -0.01   0.15     0.01  -0.02   0.00     0.02  -0.02   0.00
     6   6     0.00   0.00  -0.10    -0.02  -0.01  -0.06    -0.02  -0.01   0.05
     7   1     0.00   0.00  -0.04     0.05   0.00   0.43     0.02   0.04  -0.29
     8   1    -0.01   0.04  -0.55     0.00   0.00   0.26    -0.01   0.02  -0.14
     9   1    -0.01   0.03  -0.49     0.00  -0.02   0.18     0.00  -0.02  -0.10
    10   1     0.00   0.00  -0.02     0.03  -0.02   0.37     0.04   0.03  -0.26
    11   1    -0.02   0.03  -0.59    -0.01  -0.04   0.27    -0.03   0.01  -0.19
    12   6     0.00  -0.01   0.05     0.00  -0.04   0.18    -0.03   0.00  -0.10
    13   6     0.00   0.01  -0.03    -0.03   0.06  -0.02    -0.02   0.04   0.05
    14   1     0.00   0.01  -0.06    -0.02   0.09  -0.51     0.13   0.01   0.17
    15   8     0.00  -0.01  -0.01     0.01  -0.04  -0.06     0.02   0.00   0.03
    16   8    -0.01  -0.01   0.00    -0.04  -0.01  -0.01    -0.05  -0.02   0.01
    17   1     0.02   0.00  -0.02     0.05  -0.25  -0.18    -0.01  -0.55  -0.22
    18   6     0.00   0.01   0.04    -0.03   0.09   0.02    -0.10   0.21  -0.03
    19   6     0.00   0.00   0.00    -0.02   0.00   0.00    -0.06  -0.02  -0.01
    20   6     0.00   0.00  -0.01     0.01  -0.01   0.05    -0.01  -0.03   0.07
    21   1     0.00   0.02  -0.02     0.02   0.00   0.03     0.02  -0.01   0.03
    22   1     0.00   0.01  -0.01     0.01  -0.02   0.07     0.02  -0.06   0.16
    23   1     0.00   0.01   0.01     0.03   0.00   0.03     0.03  -0.01   0.04
    24   6     0.00   0.00  -0.01    -0.01   0.01  -0.02     0.05  -0.06  -0.03
    25   1    -0.01  -0.01   0.01    -0.04   0.00   0.05     0.20   0.04  -0.05
    26   1     0.00   0.00   0.00    -0.01  -0.02  -0.05     0.06  -0.14   0.00
    27   1     0.01  -0.02  -0.01     0.08  -0.02  -0.03    -0.01  -0.05  -0.03
    28   6     0.01   0.00   0.00     0.08  -0.04  -0.01     0.11  -0.05  -0.04
    29   1     0.01   0.01  -0.01     0.09  -0.01   0.01     0.09  -0.09   0.14
    30   1     0.01   0.00   0.02     0.08  -0.03  -0.06     0.11  -0.06  -0.22
    31   1     0.00  -0.02   0.00     0.04   0.05   0.01     0.09   0.21   0.05
                    28                     29                     30
                     A                      A                      A
 Frequencies --   876.0626               885.2510               925.0095
 Red. masses --     1.6780                 3.8906                 3.0921
 Frc consts  --     0.7588                 1.7964                 1.5588
 IR Inten    --    50.8768                72.6266               120.7548
[...]
 22,-0.00129624,0.00217366,0.00017977,0.00013392,0.00019166,-0.00061190
 ,-0.00021584,0.00012756,0.00022984,-0.00005798,0.00001722,-0.00015591,
 -0.00010399,-0.00059462,0.00016448,0.00002728,0.00757651,-0.05182496,-
 0.06903324,-0.00959565,0.06121340,0.06618079,-0.00004623,-0.00005743,0
 .00000117,-0.00010966,0.00021939,-0.00011527,0.00000932,0.00009034,0.0
 0002016,-0.00002661,-0.00004210,0.00002502,-0.00000952,-0.00001184,-0.
 00000873,0.00000139,-0.00001061,0.00001830,-0.00000286,-0.00000499,0.0
 0001506,0.00017766,-0.00004569,0.00030536,0.00001589,-0.00001157,-0.00
 001796,-0.00000598,-0.00000025,0.00000678,0.00000354,-0.00000835,-0.00
 000008,0.00111616,0.00063459,-0.00058268,0.00262761,0.00098964,0.00074
 785,0.00837482,-0.00736053,-0.00492311,-0.00030793,0.00069727,0.000268
 19,0.00222135,-0.00195977,-0.00091148,-0.00084640,0.00196675,0.0009905
 9,-0.00071737,0.00178678,0.00157665,-0.01898158,0.00387313,0.03219579,
 0.00209724,0.00084088,0.00150277,0.00045038,-0.00013337,-0.00017970,-0
 .00031936,0.00008432,-0.00116005,-0.00004299,-0.00002155,-0.00010636,-
 0.12453311,0.01452985,0.11928835,-0.00273613,0.00011911,0.00357894,0.1
 2594629,0.00004478,0.00015343,0.00003170,-0.00008709,-0.00023874,0.000
 12655,-0.00000231,-0.00000467,-0.00002036,-0.00001763,-0.00004423,0.00
 001114,-0.00001767,-0.00001538,0.00002609,-0.00004564,0.00001289,0.000
 02756,-0.00003676,-0.00001779,0.00003368,0.00004292,0.00030273,-0.0002
 0596,0.00000610,-0.00000184,-0.00001158,-0.00000612,0.00000640,0.00001
 047,-0.00001374,0.00001316,0.00001686,-0.00002817,-0.00092627,-0.00045
 812,-0.00662168,-0.01756978,-0.00578479,-0.00903268,-0.02768331,-0.020
 88534,0.00012002,0.00020229,0.00006723,0.00221073,-0.00039569,-0.00014
 514,-0.00054787,0.00069741,0.00013531,0.00115112,0.00042197,0.00022188
 ,-0.00904308,0.00159305,0.01256799,0.00149902,0.00069991,0.00009475,0.
 00009545,-0.00021393,0.00007927,0.00006069,0.00048864,-0.00028391,0.00
 009186,0.00001464,-0.00022834,0.02092966,-0.05209631,-0.02529737,0.017
 98567,-0.00150850,-0.03287073,-0.00861872,0.09699449,0.00000743,0.0001
 1093,0.00001013,-0.00031435,-0.00021145,0.00003104,-0.00002330,-0.0000
 4184,-0.00004588,0.00006782,0.00003952,-0.00005335,-0.00001058,-0.0000
 1769,0.00000161,-0.00001873,-0.00000450,0.00002961,-0.00001007,-0.0000
 0172,0.00001986,0.00029191,-0.00004458,0.00004101,-0.00001029,0.000004
 02,0.00001636,0.00000756,-0.00000733,-0.00000984,0.00000404,0.00000984
 ,0.00000101,-0.00075599,-0.00181319,0.00082154,-0.00645987,-0.01624380
 ,-0.00317006,-0.00572954,-0.02028775,-0.00059942,0.00020724,-0.0008955
 0,-0.00041317,-0.00016588,0.00083161,0.00155585,0.00062836,-0.00136436
 ,-0.00088839,0.00199958,-0.00159268,-0.00268112,-0.00088177,0.00072546
 ,-0.00322592,-0.00000495,0.00059594,0.00118370,0.00020576,-0.00004874,
 0.00013428,0.00012993,-0.00027739,0.00034615,0.00002623,0.00022096,-0.
 00010011,0.12402234,-0.01501696,-0.28148560,0.00141495,0.00020493,-0.0
 0344310,-0.13051059,0.05925608,0.31277910,-0.00000685,0.00001674,0.000
 00150,0.00000091,0.00000398,-0.00001714,-0.00000270,0.00000673,0.00007
 130,0.00000610,-0.00001462,-0.00001215,-0.00001056,-0.00001090,0.00000
 571,-0.00000894,0.00000450,0.00001163,-0.00000266,-0.00000742,0.000005
 61,0.00005248,-0.00003016,0.00000312,0.00000589,-0.00000333,-0.0000071
 1,-0.00000392,0.00000291,0.00000353,-0.00000413,0.00000104,0.00000443,
 -0.00004778,-0.00052273,-0.00075076,0.00051268,0.00084415,0.00075771,-
 0.00034413,-0.00111406,0.00005221,0.00015504,0.00030581,0.00012411,-0.
 00031726,0.00034932,0.00024660,0.00014364,-0.00012360,-0.00035630,0.00
 115204,0.00168604,-0.00018197,-0.02089873,0.01269159,-0.02627478,-0.00
 587328,-0.00458732,0.00074658,-0.00138513,0.00071592,-0.00170383,0.000
 24357,-0.00014953,0.00004166,0.00032321,-0.00016014,0.00045719,-0.1424
 5282,0.06652009,-0.11935986,-0.00261937,0.00123963,-0.00346003,0.01147
 028,-0.00806609,0.01552421,0.15888715,-0.00000924,0.00001823,-0.000001
 34,0.00000638,0.00000178,0.00001168,-0.00006199,0.00003100,-0.00000144
 ,-0.00000376,-0.00002291,0.00000432,-0.00001068,-0.00000891,0.00000787
 ,-0.00000654,0.00000454,0.00000656,0.00000305,-0.00000847,0.00000830,0
 .00000892,0.00001421,-0.00001406,0.00000403,-0.00000356,-0.00000647,-0
 .00000302,0.00000388,0.00000570,-0.00000377,0.00000061,0.00000642,0.00
 032408,-0.00039927,-0.00002573,-0.00065767,-0.00002492,0.00064485,-0.0
 0002709,0.00079332,-0.00003945,-0.00004676,0.00018885,0.00000329,0.000
 71416,0.00022092,-0.00005224,-0.00004120,0.00026992,-0.00000995,-0.001
 23928,0.00108603,-0.00197403,-0.01261454,0.00474772,-0.01415876,-0.003
 22049,-0.00168116,-0.00024405,-0.00057798,0.00083222,-0.00066476,0.000
 11577,-0.00025770,0.00011740,-0.00028355,0.00034700,0.00001532,0.06974
 183,-0.10610803,0.09204882,0.02028864,-0.01306134,0.02883247,-0.002558
 97,0.00109610,-0.00409550,-0.07045481,0.11114423,0.00003713,-0.0000227
 5,0.00000082,0.00003454,0.00002204,0.00009170,0.00002593,-0.00002603,-
 0.00002207,0.00001297,-0.00000622,-0.00001097,0.00000429,-0.00001184,0
 .00000154,0.00000608,0.00000725,-0.00000645,-0.00001321,0.00000782,-0.
 00001224,-0.00012686,0.00008895,-0.00005492,-0.00001005,-0.00000129,-0
 .00000602,-0.00000173,-0.00000095,-0.00000473,-0.00000252,-0.00000128,
 -0.00000632,-0.00020765,-0.00041279,0.00015526,0.00214313,-0.00065302,
 -0.00001676,-0.00060154,0.00198615,0.00042347,0.00000870,-0.00023390,-
 0.00008785,-0.00043134,-0.00053607,0.00023573,-0.00030598,0.00031026,0
 .00008271,-0.00121162,0.00060373,0.00152563,0.00011411,0.00077721,-0.0
 0176595,0.00010241,-0.00053736,0.00094815,-0.00034029,0.00013107,0.000
 12594,0.00028452,-0.00004045,0.00040332,0.00009725,0.00015730,-0.00003
 814,-0.12053345,0.08877684,-0.22221653,0.00560835,-0.00397257,0.007195
 41,-0.01969904,0.01470173,-0.02313433,0.13375746,-0.10009644,0.2351980
 3,0.00000959,0.00002231,0.00005138,0.00005443,-0.00010784,-0.00001335,
 -0.00012955,0.00022930,-0.00011802,-0.00007330,0.00000555,0.00005031,0
 .00002038,0.00003011,0.00000883,-0.00001452,-0.00002584,-0.00000154,-0
 .00000887,-0.00000200,-0.00000469,-0.00005339,0.00002342,-0.00003366,-
 0.00000403,0.00000712,-0.00000229,0.00000019,-0.00000034,0.00000556,-0
 .00000420,0.00000347,-0.00000073,0.00008921,0.00033946,0.00092888,0.00
 177550,0.00005070,0.00091354,-0.00062928,-0.00077325,-0.00029839,-0.00
 006767,-0.00017347,0.00004301,-0.01219613,0.01510549,0.01133958,0.0283
 3401,-0.04863300,-0.02115354,-0.00999582,0.01006261,0.00667354,-0.1138
 9270,0.01097605,0.03622405,0.01206664,-0.00116812,-0.01930239,0.000216
 00,-0.00037175,-0.00069302,-0.00221464,0.00178144,-0.00509595,0.000277
 71,-0.00070427,0.00027095,-0.02109145,-0.00021909,0.02996985,0.0005482
 7,0.00082616,0.00036035,-0.00476943,-0.00126015,0.00012849,0.00086468,
 0.00061977,0.00081156,0.60659683,0.00002127,0.00001846,-0.00002579,0.0
 0003428,0.00000049,-0.00001936,-0.00004964,-0.00029990,0.00003612,0.00
 008514,0.00001777,-0.00009498,-0.00002761,-0.00004177,0.00001382,0.000
 00982,0.00002797,-0.00000375,0.00000605,-0.00000515,-0.00000448,0.0000
 3191,-0.00001452,-0.00005107,0.00000373,-0.00000031,-0.00000136,0.0000
 0664,0.00000588,-0.00000413,-0.00000517,0.00000278,0.00000682,0.000526
 85,-0.00076936,-0.00069775,0.00026258,-0.00116891,0.00078576,0.0009611
 3,-0.00063560,-0.00148547,0.00026878,0.00043221,-0.00016165,0.03261755
 ,-0.14590934,-0.05635731,-0.04009268,-0.04702057,-0.02454448,0.0115535
 3,-0.02275152,-0.02243694,0.00353765,-0.06901650,-0.00487653,-0.006788
 59,0.00440183,0.01454838,-0.00054170,0.00019245,-0.00157762,0.00173349
 ,-0.00109473,0.00287014,-0.00023960,-0.00092970,0.00022685,-0.01054720
 ,0.00319655,0.01539766,-0.00029028,-0.00103980,0.00056222,-0.00371398,
 -0.00194271,-0.00009471,0.00125054,0.00033231,-0.00055830,0.02940885,0
 .80818082,-0.00001015,-0.00000308,0.00002421,0.00008939,-0.00011466,-0
 .00005241,0.00001618,-0.00006102,-0.00016254,0.00000056,0.00009718,0.0
 0001212,0.00004547,0.00004895,-0.00002793,0.00001426,-0.00003716,-0.00
 002534,0.00001688,0.00001545,-0.00002219,-0.00005896,-0.00003285,-0.00
 001616,-0.00002124,0.00001811,0.00002313,0.00001306,-0.00000755,-0.000
 01254,0.00000869,0.00000269,-0.00001041,-0.00015649,0.00173909,0.00108
 789,0.00362260,-0.00125657,-0.00279185,-0.00069714,-0.00116182,-0.0003
 2819,-0.00018865,-0.00088226,-0.00008594,0.02546384,-0.04409529,-0.001
 45969,-0.02212307,-0.01114490,0.00314683,0.00081720,-0.00970256,-0.007
 18157,0.02657171,-0.01748359,-0.15902665,0.01333170,0.00026936,-0.0353
 3243,0.00123340,-0.00106520,0.00155714,-0.00259201,0.00083902,-0.00275
 635,0.00108468,-0.00111668,0.00089741,0.00354279,0.00199244,0.00170803
 ,-0.00023217,-0.00026286,0.00008501,-0.00316287,-0.00118762,0.00155074
 ,-0.00117713,-0.00028902,0.00035375,0.08865752,0.03580295,0.54941368,-
 0.00000960,0.00000144,0.00001486,0.00005516,-0.00008574,-0.00004458,0.
 00007534,0.00001127,-0.00004550,-0.00000673,0.00003874,0.00002196,0.00
 002598,0.00003833,-0.00001624,0.00001297,-0.00002185,-0.00001824,0.000
 01323,0.00000916,-0.00001561,-0.00003000,-0.00002015,-0.00001041,-0.00
 001285,0.00001300,0.00001431,0.00000269,-0.00000107,-0.00000509,0.0000
 0260,0.00000139,-0.00000489,-0.00047372,0.00057614,0.00051663,0.001024
 48,0.00133290,-0.00132439,0.00001064,-0.00067439,-0.00066765,0.0001068
 1,-0.00017623,-0.00013776,0.00254974,0.02577192,0.01036170,-0.01434382
 ,0.06816593,0.04000016,-0.00020910,-0.00011876,0.00355935,-0.01335271,
 -0.00632810,-0.00504414,0.00010477,-0.00009394,-0.00144567,0.00141630,
 0.00012190,0.00037441,0.00036248,0.00025766,0.00012736,0.00007278,0.00
 024940,0.00008660,-0.00029489,0.00216139,0.00391741,0.00036017,0.00018
 306,-0.00009680,-0.00130068,-0.00068339,0.00055468,0.00049029,0.000092
 75,-0.00010236,-0.25582356,-0.12228696,-0.01715491,0.29074005,-0.00000
 729,-0.00000541,0.00001277,0.00004707,-0.00009322,-0.00006281,0.000133
 57,-0.00009894,-0.00003668,0.00002043,0.00006414,0.00001304,0.00002723
 ,0.00003602,-0.00002401,0.00001714,-0.00002420,-0.00002322,0.00001686,
 0.00001320,-0.00001884,-0.00003590,-0.00003076,0.00000277,-0.00001429,
 0.00001376,0.00001794,0.00000588,-0.00000292,-0.00001157,0.00000558,0.
 00000132,-0.00000775,-0.00038127,0.00092378,0.00043979,0.00100033,0.00
 089471,-0.00217509,-0.00019152,-0.00066468,-0.00083948,0.00005262,-0.0
 0031517,-0.00017482,0.07653558,-0.06316538,-0.02727352,0.03635885,-0.0
 4621118,-0.06230080,0.00562043,-0.00769310,0.00274263,-0.00438734,-0.0
 0647622,-0.00124762,-0.00096523,0.00028806,-0.00015616,0.00070245,0.00
 040620,0.00051492,0.00041381,-0.00004247,0.00029374,-0.00023509,0.0003
 0324,-0.00017943,-0.00017329,0.00098159,0.00290095,0.00057155,0.000837
 33,-0.00003253,-0.00118470,-0.00020907,0.00045973,0.00008767,0.0000524
 2,-0.00022954,-0.12708057,-0.10859533,-0.00472087,0.03778538,0.2422334
 2,-0.00000057,-0.00001247,-0.00001240,-0.00000976,0.00000367,-0.000028
 04,0.00006859,-0.00008305,-0.00000322,0.00002573,0.00002359,-0.0000069
 3,0.00000500,0.00000363,-0.00001241,0.00000859,-0.00000201,-0.00000619
 ,0.00000692,0.00000607,-0.00000422,-0.00000038,-0.00001715,0.00001928,
 -0.00000414,0.00000302,0.00000792,0.00000326,-0.00000265,-0.00000593,0
 .00000463,-0.00000107,-0.00000364,-0.00018897,0.00028214,-0.00011498,-
 0.00013601,-0.00005728,-0.00042533,0.00016595,0.00020438,0.00016818,0.
 00002530,-0.00011675,-0.00006407,0.02967449,-0.02565527,0.00270279,0.0
 2411746,-0.05316978,0.00016764,0.00227412,-0.00241688,-0.00037435,0.02
 494952,0.00929914,0.00317853,-0.00001523,0.00065629,0.00246329,-0.0001
 3055,-0.00008304,-0.00049916,-0.00003587,-0.00037461,0.00056600,-0.000
 11803,0.00025160,-0.00022997,0.00144410,-0.00134832,-0.00365501,-0.000
 13441,0.00021927,-0.00018160,0.00131533,0.00010099,0.00017766,0.000345
 57,-0.00018273,0.00007222,-0.01592547,-0.00478148,-0.05995712,-0.03495
 069,0.09437462,0.05492935,-0.00000118,0.00000954,0.00000585,-0.0000093
 7,-0.00000498,0.00000799,-0.00000023,0.00007744,0.00001772,-0.00002219
 ,-0.00001971,0.00001321,-0.00000284,0.00000074,0.00000400,-0.00000454,
 -0.00000083,0.00000389,-0.00000357,-0.00000391,0.00000425,0.00000156,0
 .00001692,0.00000182,0.00000372,-0.00000371,-0.00000544,-0.00000330,0.
 00000168,0.00000511,-0.00000302,0.00000030,0.00000264,0.00013344,-0.00
 016544,0.00015374,-0.00023506,0.00039462,0.00022365,-0.00026863,0.0002
 6158,-0.00001098,-0.00002777,0.00007713,-0.00001252,0.01375336,-0.0003
 0321,0.00138531,-0.00733196,0.00939333,0.00503184,0.00155950,-0.000879
 21,0.00041114,-0.00239505,0.01587555,0.00150631,-0.00004050,0.00027857
 ,-0.00094218,0.00006624,-0.00009576,-0.00001681,-0.00017082,-0.0001389
 3,-0.00004060,0.00042999,-0.00031470,-0.00017599,0.00023717,0.00094224
 ,-0.00018525,-0.00053427,-0.00036819,0.00053072,0.00011584,-0.00015835
 ,-0.00016419,-0.00005871,0.00004892,0.00003960,-0.07505798,0.03992024,
 0.00669573,0.00364024,-0.03355147,-0.00818466,0.06752064,0.00000060,-0
 .00006418,-0.00002204,0.00001800,-0.00001643,-0.00002327,0.00010317,-0
 .00010845,-0.00017381,0.00003128,0.00008542,-0.00000985,0.00003316,0.0
 0003387,-0.00002440,0.00002281,-0.00000949,-0.00002673,0.00002130,0.00
 002234,-0.00001446,-0.00002866,-0.00008035,0.00002047,-0.00002170,0.00
 001661,0.00002861,0.00001599,-0.00001517,-0.00001952,0.00001857,-0.000
 00217,-0.00001894,-0.00049265,0.00108043,0.00081490,0.00083359,0.00091
 332,-0.00069590,0.00038887,0.00008244,-0.00021605,0.00010285,-0.000584
 03,-0.00029189,0.00395108,-0.01686734,-0.00764231,0.00254699,0.0032517
 5,0.00253923,-0.00243045,-0.00179028,0.00233515,-0.00098187,-0.0037430
 9,0.00389024,-0.00025411,-0.00046515,0.00037101,0.00021690,0.00007214,
 -0.00003287,-0.00007170,0.00052631,-0.00007555,-0.00028462,0.00137823,
 0.00005804,-0.00034789,-0.00058734,0.00051827,-0.00006561,0.00139269,0
 .00027994,0.00010683,0.00026638,-0.00025536,-0.00011862,0.00002192,-0.
 00017475,0.04132164,-0.32223819,-0.04958294,0.00256635,-0.01601851,-0.
 00319382,-0.04964926,0.36699122,0.00000600,-0.00002323,-0.00000878,0.0
 0002072,0.00000450,-0.00001837,0.00000316,-0.00010774,-0.00007441,0.00
 002998,0.00004070,-0.00002349,0.00001252,0.00000537,-0.00000829,0.0000
 1063,-0.00000093,-0.00001328,0.00001126,0.00000793,-0.00000656,-0.0000
 0524,-0.00003569,-0.00000314,-0.00000860,0.00000731,0.00001047,0.00000
 806,-0.00000444,-0.00000808,0.00000561,-0.00000057,-0.00000656,0.00014
 444,0.00017983,0.00032264,0.00045658,-0.00004416,-0.00048691,0.0001003
 7,-0.00011787,-0.00061476,0.00001774,-0.00013606,-0.00013324,0.0018738
 4,-0.00663203,0.00525420,0.00167281,0.00113743,-0.00114142,-0.00102974
 ,-0.00024121,0.00124527,0.00578420,-0.02723028,-0.00609189,-0.00033646
 ,-0.00059822,0.00101438,-0.00000662,0.00003670,-0.00015697,0.00002990,
 0.00033687,0.00041723,-0.00016698,0.00063377,-0.00098241,-0.00099932,-
 0.00078370,0.00096056,0.00048224,0.00058953,0.00017201,-0.00037455,0.0
 0003569,-0.00009101,0.00001346,0.00010630,-0.00004162,0.00636234,-0.04
 697021,-0.07594729,0.00014984,-0.00114787,-0.00086582,-0.01093494,0.05
 576209,0.07060125,-0.00000429,-0.00001759,-0.00001424,-0.00000668,0.00
 001340,0.00001035,0.00004596,-0.00003101,0.00000421,0.00001319,0.00001
 788,-0.00000011,0.00000199,0.00000378,-0.00000772,0.00000374,0.0000004
 2,-0.00000089,0.00000389,0.00000375,0.00000039,0.00000200,-0.00001924,
 0.00000768,-0.00000193,0.00000154,0.00000643,0.00000354,-0.00000447,-0
 .00000536,0.00000524,-0.00000087,-0.00000452,-0.00021907,0.00026315,0.
 00003834,-0.00009521,-0.00001652,-0.00066489,0.00011663,-0.00004697,0.
 00011560,-0.00002921,-0.00014387,-0.00001779,0.00738085,-0.00405564,0.
 00096329,-0.00405992,0.00658106,-0.00219679,-0.00059000,0.00037284,0.0
 0406408,0.01027188,-0.00559622,0.01477302,-0.00140453,0.00070185,0.002
 87188,0.00018444,0.00013976,0.00020809,0.00059616,-0.00009604,0.000806
 68,-0.00025574,0.00008853,-0.00009441,0.00103239,-0.00053067,0.0003847
 8,0.00004598,-0.00002607,-0.00011600,0.00012808,0.00004914,-0.00016043
 ,-0.00027098,-0.00014696,0.00049963,-0.15482690,0.06234334,-0.12365088
 ,-0.01520904,0.00880551,-0.02459983,-0.00129071,0.00244717,-0.00333326
 ,0.15842826,-0.00000537,-0.00000093,0.00000473,-0.00000237,-0.00000665
 ,-0.00002842,0.00000828,0.00000925,-0.00004604,-0.00000465,0.00001810,
 0.00001405,0.00001335,0.00000993,-0.00000875,0.00000193,-0.00001308,-0
 .00000806,0.00000302,0.00000216,-0.00000092,0.00000277,-0.00000983,0.0
 0001868,-0.00000554,0.00000245,0.00000203,0.00000227,-0.00000184,-0.00
 000303,0.00000285,-0.00000047,-0.00000093,-0.00020104,0.00057295,0.000
 16901,0.00135441,-0.00024675,-0.00114916,0.00022697,-0.00018047,0.0002
 9312,-0.00004294,-0.00033040,0.00007517,-0.00122048,-0.03307050,-0.031
 91673,-0.00359250,0.00410444,-0.00101160,-0.00382126,-0.00173143,0.000
 77385,-0.00030147,-0.00144650,-0.00011818,-0.00082233,-0.00004642,0.00
 053091,0.00018115,-0.00002400,-0.00000436,0.00033708,-0.00001924,0.000
 16708,-0.00010330,0.00039544,-0.00021772,0.00037109,0.00010079,0.00021
 259,0.00009930,-0.00004328,0.00018096,-0.00019447,-0.00009526,-0.00014
 397,-0.00036334,0.00036907,-0.00005478,0.06970626,-0.09333562,0.103383
 26,-0.00888752,0.00259739,-0.01393002,0.01835884,-0.01354492,0.0251902
 1,-0.07110099,0.13596559,0.00000869,0.00001406,0.00001653,0.00002001,-
 0.00002091,0.00001325,-0.00003814,0.00002587,-0.00001023,-0.00001061,-
 0.00001298,-0.00000028,-0.00000035,-0.00000427,0.00000846,-0.00000592,
 -0.00000086,0.00000446,-0.00000616,-0.00000280,-0.00000118,-0.00001852
 ,0.00002752,-0.00002715,-0.00000002,-0.00000166,-0.00000801,-0.0000030
 9,0.00000298,0.00000292,-0.00000562,0.00000166,0.00000138,0.00027415,-
 0.00019182,-0.00007458,0.00012766,-0.00059924,0.00027642,-0.00047280,-
 0.00014427,-0.00014924,-0.00000755,0.00010411,0.00006455,-0.00176917,-
 0.01825164,-0.00974262,-0.00024308,0.00340139,-0.00006803,0.00065021,-
 0.00031586,-0.00065761,-0.01748059,0.01035771,-0.02190730,0.00364755,-
 0.00185693,-0.00383469,0.00011886,-0.00024952,0.00027162,-0.00062325,0
 .00051271,-0.00142950,0.00021624,-0.00000778,0.00043803,-0.00156073,0.
 00052102,0.00069935,0.00018797,-0.00006935,-0.00003397,-0.00010385,-0.
 00016573,0.00064165,0.00112746,0.00003668,0.00061120,-0.12015670,0.094
 49666,-0.21466333,0.00138567,-0.00111029,0.00199753,0.00462904,-0.0041
 2350,0.00672629,0.13011267,-0.08237296,0.24083408||-0.00598411,-0.0114
 9294,0.00317249,0.00777241,-0.01156263,-0.01100706,-0.01725523,0.00303
 368,0.01703056,0.00827641,0.00810717,-0.00664057,-0.00577132,0.0121233
 6,0.00946091,-0.01058501,0.00012365,0.01099477,0.00007878,0.00029203,0
 .00002479,0.00329255,-0.00013212,-0.00352756,-0.00117984,0.00221497,0.
 00183016,-0.00023014,-0.00023870,0.00022240,0.00027050,0.00028937,-0.0
 0022252,-0.00240687,-0.01486094,0.01119617,-0.00147743,-0.14862791,-0.
 03012633,-0.02052188,-0.04078833,-0.01602222,0.02176658,0.04440468,-0.
 01214425,0.03125786,-0.33531257,-0.06359089,0.01665735,-0.08997772,-0.
 03609215,-0.00252984,0.14840680,0.04415852,0.02780984,0.10125623,-0.04
 013667,0.00873234,0.00186617,0.01086120,-0.01010087,-0.00242343,-0.005
 62401,-0.00190894,0.00131348,-0.00730401,-0.00476164,0.00849108,-0.001
 19164,-0.01736124,0.02394733,0.01518858,0.00281508,0.00975370,0.002909
 44,0.00726350,0.03142848,0.01742970,0.00743832,-0.00180308,0.00423697,
 0.02872319,0.14173302,0.02537188,-0.05561202,0.08889328,0.04713236,-0.
 00745882,0.01309874,0.00204742,-0.00700951,0.01644318,0.01036157|||@


 WORK FAITHFULLY FOR EIGHT HOURS A DAY AND DON'T WORRY.
 IN TIME YOU MAY BECOME BOSS AND WORK TWELVE HOURS A DAY
 AND HAVE ALL THE WORRY.
 Job cpu time:  0 days  0 hours 14 minutes 45.0 seconds.
 File lengths (MBytes):  RWF=    217 Int=      0 D2E=      0 Chk=      5 Scr=      1
 Normal termination of Gaussian 09 at Thu Nov 28 02:26:51 2024.
