 Entering Link 1 = C:\G09W\l1.exe PID=      8472.
  
 Copyright (c) 1988,1990,1992,1993,1995,1998,2003,2009, Gaussian, Inc.
                  All Rights Reserved.
  
 This is part of the Gaussian(R) 09 program.  It is based on
 the Gaussian(R) 03 system (copyright 2003, Gaussian, Inc.),
 the Gaussian(R) 98 system (copyright 1998, Gaussian, Inc.),
 the Gaussian(R) 94 system (copyright 1995, Gaussian, Inc.),
 the Gaussian 92(TM) system (copyright 1992, Gaussian, Inc.),
 the Gaussian 90(TM) system (copyright 1990, Gaussian, Inc.),
 the Gaussian 88(TM) system (copyright 1988, Gaussian, Inc.),
 the Gaussian 86(TM) system (copyright 1986, Carnegie Mellon
 University), and the Gaussian 82(TM) system (copyright 1983,
 Carnegie Mellon University). Gaussian is a federally registered
 trademark of Gaussian, Inc.
  
 This software contains proprietary and confidential information,
 including trade secrets, belonging to Gaussian, Inc.
  
 This software is provided under written license and may be
 used, copied, transmitted, or stored only in accord with that
 written license.
  
 The following legend is applicable only to US Government
 contracts under FAR:
  
                    RESTRICTED RIGHTS LEGEND
  
 Use, reproduction and disclosure by the US Government is
 subject to restrictions as set forth in subparagraphs (a)
 and (c) of the Commercial Computer Software - Restricted
 Rights clause in FAR 52.227-19.
  
 Gaussian, Inc.
 340 Quinnipiac St., Bldg. 40, Wallingford CT 06492
  
  
 ---------------------------------------------------------------
 Warning -- This program may not be used in any manner that
 competes with the business of Gaussian, Inc. or will provide
 assistance to any competitor of Gaussian, Inc.  The licensee
 of this program is prohibited from giving any competitor of
 Gaussian, Inc. access to this program.  By using this program,
 the user acknowledges that Gaussian, Inc. is engaged in the
 business of creating and licensing software in the field of
 computational chemistry and represents and warrants to the
 licensee that it is not a competitor of Gaussian, Inc. and that
 it will not use this program in any manner prohibited above.
 ---------------------------------------------------------------
  

 Cite this work as:
 Gaussian 09, Revision A.02,
 M. J. Frisch, G. W. Trucks, H. B. Schlegel, G. E. Scuseria, 
 M. A. Robb, J. R. Cheeseman, G. Scalmani, V. Barone, B. Mennucci, 
 G. A. Petersson, H. Nakatsuji, M. Caricato, X. Li, H. P. Hratchian, 
 A. F. Izmaylov, J. Bloino, G. Zheng, J. L. Sonnenberg, M. Hada, 
 M. Ehara, K. Toyota, R. Fukuda, J. Hasegawa, M. Ishida, T. Nakajima, 
 Y. Honda, O. Kitao, H. Nakai, T. Vreven, J. A. Montgomery, Jr., 
 J. E. Peralta, F. Ogliaro, M. Bearpark, J. J. Heyd, E. Brothers, 
 K. N. Kudin, V. N. Staroverov, R. Kobayashi, J. Normand, 
 K. Raghavachari, A. Rendell, J. C. Burant, S. S. Iyengar, J. Tomasi, 
 M. Cossi, N. Rega, J. M. Millam, M. Klene, J. E. Knox, J. B. Cross, 
 V. Bakken, C. Adamo, J. Jaramillo, R. Gomperts, R. E. Stratmann, 
 O. Yazyev, A. J. Austin, R. Cammi, C. Pomelli, J. W. Ochterski, 
 R. L. Martin, K. Morokuma, V. G. Zakrzewski, G. A. Voth, 
 P. Salvador, J. J. Dannenberg, S. Dapprich, A. D. Daniels, 
 O. Farkas, J. B. Foresman, J. V. Ortiz, J. Cioslowski, 
 and D. J. Fox, Gaussian, Inc., Wallingford CT, 2009.
 
 ******************************************
 Gaussian 09:  IA32W-G09RevA.02 11-Jun-2009
                27-Nov-2024 
 ******************************************
 %chk=C:\G09W\Midterm1\E1opt.chk
 ---------------------------------
 # opt hf/6-311g geom=connectivity
 ---------------------------------
 1/18=20,19=15,38=1,57=2/1,3;
 2/9=110,12=2,17=6,18=5,40=1/2;
 3/5=4,6=6,11=9,16=1,25=1,30=1,71=1/1,2,3;
 4//1;
 5/5=2,38=5/2;
 6/7=2,8=2,9=2,10=2,28=1/1;
 7//1,2,3,16;
 1/18=20,19=15/3(2);
 2/9=110/2;
 99//99;
 2/9=110/2;
 3/5=4,6=6,11=9,16=1,25=1,30=1,71=1/1,2,3;
 4/5=5,16=3/1;
 5/5=2,38=5/2;
 7//1,2,3,16;
 1/18=20,19=15/3(-5);
 2/9=110/2;
 6/7=2,8=2,9=2,10=2,19=2,28=1/1;
 99/9=1/99;
 -------------------
 Title Card Required
 -------------------
 Symbolic Z-matrix:
 Charge =  0 Multiplicity = 1
 C                    -4.57459  -3.15356   4.28906 
 C                    -3.59176  -3.05683   3.29477 
 C                    -2.99667  -1.8191    3.01581 
 C                    -3.38441  -0.6781    3.73113 
 C                    -4.36724  -0.77483   4.72542 
 C                    -4.96233  -2.01256   5.00439 
 H                    -5.02895  -4.09859   4.50205 
 H                    -3.29571  -3.92801   2.7486 
 H                    -2.93005   0.26693   3.51814 
 H                    -4.66329   0.09635   5.27159 
 H                    -5.71274  -2.08641   5.76355 
 C                    -1.91664  -1.71281   1.92318 
 C                    -1.49054  -2.96666   1.13711 
 H                    -1.94491  -3.91169   1.3501 
 O                    -1.38227  -0.60138   1.67269 
 O                     0.23838  -2.7534   -1.01793 
 H                     1.02066  -3.30524  -0.94643 
 C                    -0.54011  -2.87312   0.1756 
 C                    -0.30429  -4.36771  -0.11111 
 C                     0.54285  -4.97993   1.01989 
 H                     1.48427  -4.47428   1.07411 
 H                     0.02616  -4.87251   1.95069 
 H                     0.7067   -6.01838   0.82068 
 C                    -1.65923  -5.09546  -0.18914 
 H                    -1.49538  -6.13391  -0.38835 
 H                    -2.17592  -4.98804   0.74166 
 H                    -2.24783  -4.67009  -0.97497 
 C                     0.43936  -4.52231  -1.45077 
 H                     1.38078  -4.01667  -1.39655 
 H                     0.60321  -5.56076  -1.64997 
 H                    -0.14924  -4.09694  -2.23659 
 

 GradGradGradGradGradGradGradGradGradGradGradGradGradGradGradGradGradGrad
 Berny optimization.
 Initialization pass.
                           ----------------------------
                           !    Initial Parameters    !
                           ! (Angstroms and Degrees)  !
 --------------------------                            --------------------------
 ! Name  Definition              Value          Derivative Info.                !
 --------------------------------------------------------------------------------
 ! R1    R(1,2)                  1.4014         estimate D2E/DX2                !
 ! R2    R(1,6)                  1.4014         estimate D2E/DX2                !
 ! R3    R(1,7)                  1.07           estimate D2E/DX2                !
 ! R4    R(2,3)                  1.4014         estimate D2E/DX2                !
 ! R5    R(2,8)                  1.07           estimate D2E/DX2                !
 ! R6    R(3,4)                  1.4014         estimate D2E/DX2                !
 ! R7    R(3,12)                 1.54           estimate D2E/DX2                !
 ! R8    R(4,5)                  1.4014         estimate D2E/DX2                !
 ! R9    R(4,9)                  1.07           estimate D2E/DX2                !
 ! R10   R(5,6)                  1.4014         estimate D2E/DX2                !
 ! R11   R(5,10)                 1.07           estimate D2E/DX2                !
 ! R12   R(6,11)                 1.07           estimate D2E/DX2                !
 ! R13   R(12,13)                1.54           estimate D2E/DX2                !
 ! R14   R(12,15)                1.2584         estimate D2E/DX2                !
 ! R15   R(13,14)                1.07           estimate D2E/DX2                !
 ! R16   R(13,18)                1.3552         estimate D2E/DX2                !
 ! R17   R(16,17)                0.96           estimate D2E/DX2                !
 ! R18   R(16,18)                1.43           estimate D2E/DX2                !
 ! R19   R(17,29)                0.9156         estimate D2E/DX2                !
 ! R20   R(18,19)                1.54           estimate D2E/DX2                !
 ! R21   R(19,20)                1.54           estimate D2E/DX2                !
 ! R22   R(19,24)                1.54           estimate D2E/DX2                !
 ! R23   R(19,28)                1.54           estimate D2E/DX2                !
 ! R24   R(20,21)                1.07           estimate D2E/DX2                !
 ! R25   R(20,22)                1.07           estimate D2E/DX2                !
 ! R26   R(20,23)                1.07           estimate D2E/DX2                !
 ! R27   R(24,25)                1.07           estimate D2E/DX2                !
 ! R28   R(24,26)                1.07           estimate D2E/DX2                !
 ! R29   R(24,27)                1.07           estimate D2E/DX2                !
 ! R30   R(28,29)                1.07           estimate D2E/DX2                !
 ! R31   R(28,30)                1.07           estimate D2E/DX2                !
 ! R32   R(28,31)                1.07           estimate D2E/DX2                !
 ! A1    A(2,1,6)              120.0            estimate D2E/DX2                !
 ! A2    A(2,1,7)              120.0            estimate D2E/DX2                !
 ! A3    A(6,1,7)              120.0            estimate D2E/DX2                !
 ! A4    A(1,2,3)              120.0            estimate D2E/DX2                !
 ! A5    A(1,2,8)              120.0            estimate D2E/DX2                !
 ! A6    A(3,2,8)              120.0            estimate D2E/DX2                !
 ! A7    A(2,3,4)              120.0            estimate D2E/DX2                !
 ! A8    A(2,3,12)             120.0            estimate D2E/DX2                !
 ! A9    A(4,3,12)             120.0            estimate D2E/DX2                !
 ! A10   A(3,4,5)              120.0            estimate D2E/DX2                !
 ! A11   A(3,4,9)              120.0            estimate D2E/DX2                !
 ! A12   A(5,4,9)              120.0            estimate D2E/DX2                !
 ! A13   A(4,5,6)              120.0            estimate D2E/DX2                !
 ! A14   A(4,5,10)             120.0            estimate D2E/DX2                !
 ! A15   A(6,5,10)             120.0            estimate D2E/DX2                !
 ! A16   A(1,6,5)              120.0            estimate D2E/DX2                !
 ! A17   A(1,6,11)             120.0            estimate D2E/DX2                !
 ! A18   A(5,6,11)             120.0            estimate D2E/DX2                !
 ! A19   A(3,12,13)            120.0            estimate D2E/DX2                !
 ! A20   A(3,12,15)            120.0            estimate D2E/DX2                !
 ! A21   A(13,12,15)           120.0            estimate D2E/DX2                !
 ! A22   A(12,13,14)           120.0            estimate D2E/DX2                !
 ! A23   A(12,13,18)           120.0            estimate D2E/DX2                !
 ! A24   A(14,13,18)           120.0            estimate D2E/DX2                !
 ! A25   A(17,16,18)           109.4712         estimate D2E/DX2                !
 ! A26   A(16,17,29)           136.9284         estimate D2E/DX2                !
 ! A27   A(13,18,16)           168.45           estimate D2E/DX2                !
 ! A28   A(13,18,19)            99.9332         estimate D2E/DX2                !
 ! A29   A(16,18,19)            80.9381         estimate D2E/DX2                !
 ! A30   A(18,19,20)           109.4712         estimate D2E/DX2                !
 ! A31   A(18,19,24)           109.4712         estimate D2E/DX2                !
 ! A32   A(18,19,28)           109.4712         estimate D2E/DX2                !
 ! A33   A(20,19,24)           109.4712         estimate D2E/DX2                !
 ! A34   A(20,19,28)           109.4712         estimate D2E/DX2                !
 ! A35   A(24,19,28)           109.4712         estimate D2E/DX2                !
 ! A36   A(19,20,21)           109.4712         estimate D2E/DX2                !
 ! A37   A(19,20,22)           109.4712         estimate D2E/DX2                !
 ! A38   A(19,20,23)           109.4712         estimate D2E/DX2                !
 ! A39   A(21,20,22)           109.4712         estimate D2E/DX2                !
 ! A40   A(21,20,23)           109.4712         estimate D2E/DX2                !
 ! A41   A(22,20,23)           109.4712         estimate D2E/DX2                !
 ! A42   A(19,24,25)           109.4712         estimate D2E/DX2                !
 ! A43   A(19,24,26)           109.4712         estimate D2E/DX2                !
 ! A44   A(19,24,27)           109.4712         estimate D2E/DX2                !
 ! A45   A(25,24,26)           109.4712         estimate D2E/DX2                !
 ! A46   A(25,24,27)           109.4712         estimate D2E/DX2                !
 ! A47   A(26,24,27)           109.4712         estimate D2E/DX2                !
 ! A48   A(19,28,29)           109.4712         estimate D2E/DX2                !
 ! A49   A(19,28,30)           109.4712         estimate D2E/DX2                !
 ! A50   A(19,28,31)           109.4712         estimate D2E/DX2                !
 ! A51   A(29,28,30)           109.4712         estimate D2E/DX2                !
 ! A52   A(29,28,31)           109.4712         estimate D2E/DX2                !
 ! A53   A(30,28,31)           109.4712         estimate D2E/DX2                !
 ! A54   A(17,29,28)            92.6389         estimate D2E/DX2                !
 ! D1    D(6,1,2,3)              0.0            estimate D2E/DX2                !
 ! D2    D(6,1,2,8)           -179.9999         estimate D2E/DX2                !
 ! D3    D(7,1,2,3)            179.9999         estimate D2E/DX2                !
 ! D4    D(7,1,2,8)              0.0            estimate D2E/DX2                !
 ! D5    D(2,1,6,5)             -0.0001         estimate D2E/DX2                !
 ! D6    D(2,1,6,11)           179.9999         estimate D2E/DX2                !
 ! D7    D(7,1,6,5)            180.0            estimate D2E/DX2                !
 ! D8    D(7,1,6,11)            -0.0001         estimate D2E/DX2                !
 ! D9    D(1,2,3,4)              0.0001         estimate D2E/DX2                !
 ! D10   D(1,2,3,12)           179.9999         estimate D2E/DX2                !
 ! D11   D(8,2,3,4)            180.0            estimate D2E/DX2                !
 ! D12   D(8,2,3,12)            -0.0002         estimate D2E/DX2                !
 ! D13   D(2,3,4,5)             -0.0001         estimate D2E/DX2                !
 ! D14   D(2,3,4,9)            179.9999         estimate D2E/DX2                !
 ! D15   D(12,3,4,5)          -179.9999         estimate D2E/DX2                !
 ! D16   D(12,3,4,9)             0.0001         estimate D2E/DX2                !
 ! D17   D(2,3,12,13)            0.0            estimate D2E/DX2                !
 ! D18   D(2,3,12,15)         -179.9998         estimate D2E/DX2                !
 ! D19   D(4,3,12,13)          179.9998         estimate D2E/DX2                !
 ! D20   D(4,3,12,15)            0.0            estimate D2E/DX2                !
 ! D21   D(3,4,5,6)              0.0            estimate D2E/DX2                !
 ! D22   D(3,4,5,10)          -179.9999         estimate D2E/DX2                !
 ! D23   D(9,4,5,6)            180.0            estimate D2E/DX2                !
 ! D24   D(9,4,5,10)             0.0001         estimate D2E/DX2                !
 ! D25   D(4,5,6,1)              0.0001         estimate D2E/DX2                !
 ! D26   D(4,5,6,11)          -179.9999         estimate D2E/DX2                !
 ! D27   D(10,5,6,1)           179.9999         estimate D2E/DX2                !
 ! D28   D(10,5,6,11)            0.0            estimate D2E/DX2                !
 ! D29   D(3,12,13,14)           0.0002         estimate D2E/DX2                !
 ! D30   D(3,12,13,18)         180.0            estimate D2E/DX2                !
 ! D31   D(15,12,13,14)        180.0            estimate D2E/DX2                !
 ! D32   D(15,12,13,18)         -0.0002         estimate D2E/DX2                !
 ! D33   D(12,13,18,16)        -96.1631         estimate D2E/DX2                !
 ! D34   D(12,13,18,19)        170.4928         estimate D2E/DX2                !
 ! D35   D(14,13,18,16)         83.8367         estimate D2E/DX2                !
 ! D36   D(14,13,18,19)         -9.5074         estimate D2E/DX2                !
 ! D37   D(18,16,17,29)        119.3777         estimate D2E/DX2                !
 ! D38   D(17,16,18,13)       -143.8288         estimate D2E/DX2                !
 ! D39   D(17,16,18,19)        -48.5512         estimate D2E/DX2                !
 ! D40   D(16,17,29,28)        -44.9605         estimate D2E/DX2                !
 ! D41   D(13,18,19,20)        -76.2829         estimate D2E/DX2                !
 ! D42   D(13,18,19,24)         43.7171         estimate D2E/DX2                !
 ! D43   D(13,18,19,28)        163.7171         estimate D2E/DX2                !
 ! D44   D(16,18,19,20)        115.3949         estimate D2E/DX2                !
 ! D45   D(16,18,19,24)       -124.6051         estimate D2E/DX2                !
 ! D46   D(16,18,19,28)         -4.6051         estimate D2E/DX2                !
 ! D47   D(18,19,20,21)        -60.0            estimate D2E/DX2                !
 ! D48   D(18,19,20,22)         60.0            estimate D2E/DX2                !
 ! D49   D(18,19,20,23)        180.0            estimate D2E/DX2                !
 ! D50   D(24,19,20,21)        180.0            estimate D2E/DX2                !
 ! D51   D(24,19,20,22)        -60.0            estimate D2E/DX2                !
 ! D52   D(24,19,20,23)         60.0            estimate D2E/DX2                !
 ! D53   D(28,19,20,21)         60.0            estimate D2E/DX2                !
 ! D54   D(28,19,20,22)       -180.0            estimate D2E/DX2                !
 ! D55   D(28,19,20,23)        -60.0            estimate D2E/DX2                !
 ! D56   D(18,19,24,25)        180.0            estimate D2E/DX2                !
 ! D57   D(18,19,24,26)        -60.0            estimate D2E/DX2                !
 ! D58   D(18,19,24,27)         60.0            estimate D2E/DX2                !
 ! D59   D(20,19,24,25)        -60.0            estimate D2E/DX2                !
 ! D60   D(20,19,24,26)         60.0            estimate D2E/DX2                !
 ! D61   D(20,19,24,27)        180.0            estimate D2E/DX2                !
 ! D62   D(28,19,24,25)         60.0            estimate D2E/DX2                !
 ! D63   D(28,19,24,26)        180.0            estimate D2E/DX2                !
 ! D64   D(28,19,24,27)        -60.0            estimate D2E/DX2                !
 ! D65   D(18,19,28,29)         60.0            estimate D2E/DX2                !
 ! D66   D(18,19,28,30)        180.0            estimate D2E/DX2                !
 ! D67   D(18,19,28,31)        -60.0            estimate D2E/DX2                !
 ! D68   D(20,19,28,29)        -60.0            estimate D2E/DX2                !
 ! D69   D(20,19,28,30)         60.0            estimate D2E/DX2                !
 ! D70   D(20,19,28,31)        180.0            estimate D2E/DX2                !
 ! D71   D(24,19,28,29)        180.0            estimate D2E/DX2                !
 ! D72   D(24,19,28,30)        -60.0            estimate D2E/DX2                !
 ! D73   D(24,19,28,31)         60.0            estimate D2E/DX2                !
 ! D74   D(19,28,29,17)        -40.9904         estimate D2E/DX2                !
 ! D75   D(30,28,29,17)       -160.9904         estimate D2E/DX2                !
 ! D76   D(31,28,29,17)         79.0096         estimate D2E/DX2                !
 --------------------------------------------------------------------------------
 Trust Radius=3.00D-01 FncErr=1.00D-07 GrdErr=1.00D-07
 Number of steps in this run= 172 maximum allowed number of steps= 186.
 GradGradGradGradGradGradGradGradGradGradGradGradGradGradGradGradGradGrad

                          Input orientation:                          
 ---------------------------------------------------------------------
 Center     Atomic      Atomic             Coordinates (Angstroms)
 Number     Number       Type             X           Y           Z
 ---------------------------------------------------------------------
      1          6           0       -4.574586   -3.153559    4.289060
      2          6           0       -3.591756   -3.056832    3.294770
      3          6           0       -2.996670   -1.819103    3.015806
      4          6           0       -3.384411   -0.678101    3.731133
      5          6           0       -4.367241   -0.774828    4.725423
      6          6           0       -4.962329   -2.012557    5.004386
      7          1           0       -5.028948   -4.098592    4.502054
      8          1           0       -3.295707   -3.928012    2.748601
      9          1           0       -2.930049    0.266932    3.518139
     10          1           0       -4.663292    0.096353    5.271590
     11          1           0       -5.712742   -2.086409    5.763547
     12          6           0       -1.916636   -1.712810    1.923182
     13          6           0       -1.490543   -2.966659    1.137110
     14          1           0       -1.944907   -3.911692    1.350103
     15          8           0       -1.382270   -0.601380    1.672686
     16          8           0        0.238382   -2.753401   -1.017928
     17          1           0        1.020659   -3.305244   -0.946432
     18          6           0       -0.540113   -2.873121    0.175601
     19          6           0       -0.304286   -4.367706   -0.111105
     20          6           0        0.542847   -4.979930    1.019889
     21          1           0        1.484271   -4.474282    1.074111
     22          1           0        0.026161   -4.872508    1.950693
     23          1           0        0.706700   -6.018375    0.820684
     24          6           0       -1.659234   -5.095462   -0.189144
     25          1           0       -1.495380   -6.133907   -0.388349
     26          1           0       -2.175920   -4.988040    0.741660
     27          1           0       -2.247826   -4.670086   -0.974965
     28          6           0        0.439355   -4.522313   -1.450767
     29          1           0        1.380780   -4.016665   -1.396546
     30          1           0        0.603209   -5.560759   -1.649972
     31          1           0       -0.149237   -4.096938   -2.236588
 ---------------------------------------------------------------------
                    Distance matrix (angstroms):
                    1          2          3          4          5
     1  C    0.000000
     2  C    1.401400   0.000000
     3  C    2.427296   1.401400   0.000000
     4  C    2.802800   2.427296   1.401400   0.000000
     5  C    2.427296   2.802800   2.427296   1.401400   0.000000
     6  C    1.401400   2.427296   2.802800   2.427296   1.401400
     7  H    1.070000   2.146700   3.396345   3.872800   3.396345
     8  H    2.146700   1.070000   2.146700   3.396345   3.872800
     9  H    3.872800   3.396345   2.146700   1.070000   2.146700
    10  H    3.396345   3.872800   3.396345   2.146700   1.070000
    11  H    2.146700   3.396345   3.872800   3.396345   2.146700
    12  C    3.838989   2.548270   1.540000   2.548270   3.838989
    13  C    4.413732   3.013092   2.667358   3.943753   5.094654
    14  H    4.015898   2.687866   2.873969   4.265863   5.205805
    15  O    4.852824   3.679977   2.427572   2.872571   4.273095
    16  O    7.175577   5.775933   5.254473   6.323377   7.623162
    17  H    7.664213   6.270876   5.834971   6.941625   8.222069
    18  C    5.768549   4.367550   3.900307   5.054697   6.304810
    19  C    6.250685   4.911806   4.849937   6.153305   7.266938
    20  C    6.341232   5.095913   5.148076   6.424946   7.451364
    21  H    6.984980   5.718963   5.558685   6.721222   7.826764
    22  H    5.439633   4.265272   4.426652   5.691662   6.617559
    23  H    6.937491   5.776553   6.013934   7.329832   8.275666
    24  C    5.685470   4.475300   4.774408   6.152877   7.081960
    25  H    6.343669   5.237227   5.697340   7.092559   7.944683
    26  H    4.658644   3.500361   3.985917   5.382655   6.198662
    27  H    5.951775   4.758085   4.961363   6.274961   7.222145
    28  C    7.743301   6.396688   6.250111   7.500084   8.677116
    29  H    8.278734   6.903320   6.592434   7.755395   9.001542
    30  H    8.238706   6.951105   6.980588   8.288411   9.394476
    31  H    7.940891   6.597627   6.394064   7.600559   8.791904
                    6          7          8          9         10
     6  C    0.000000
     7  H    2.146700   0.000000
     8  H    3.396345   2.471400   0.000000
     9  H    3.396345   4.942800   4.280590   0.000000
    10  H    2.146700   4.280590   4.942800   2.471400   0.000000
    11  H    1.070000   2.471400   4.280590   4.280590   2.471400
    12  C    4.342800   4.693509   2.736837   2.736837   4.693509
    13  C    5.283883   5.012427   2.603790   4.265863   6.045022
    14  H    5.105421   4.413732   1.944408   4.809552   6.231540
    15  O    5.090036   5.790861   3.985638   2.560329   4.919761
    16  O    7.991527   7.747549   5.296815   6.303751   8.467913
    17  H    8.536945   8.180046   5.715955   6.949888   9.085261
    18  C    6.604069   6.353709   3.914898   5.171488   7.196352
    19  C    7.308374   6.608789   4.161713   6.445613   8.240277
    20  C    7.415421   6.629263   4.339294   6.769920   8.423151
    21  H    7.941398   7.369800   5.094165   6.923771   8.735105
    22  H    6.510713   5.715112   3.544508   6.132692   7.596637
    23  H    8.104803   7.080658   4.909760   7.746438   9.275628
    24  C    6.883857   5.861405   3.559681   6.641851   8.111653
    25  H    7.621473   6.367468   4.236462   7.634767   8.993704
    26  H    5.898170   4.803275   2.530889   5.991017   7.249713
    27  H    7.084040   6.169196   3.938740   6.710258   8.220271
    28  C    8.783283   8.094317   5.651423   7.679830   9.620768
    29  H    9.231652   8.711188   6.249770   7.815790   9.895037
    30  H    9.372589   8.467972   6.100398   8.553086  10.375306
    31  H    8.941040   8.319909   5.897535   7.739067   9.712523
                   11         12         13         14         15
    11  H    0.000000
    12  C    5.412800   0.000000
    13  C    6.325007   1.540000   0.000000
    14  H    6.083315   2.272510   1.070000   0.000000
    15  O    6.139499   1.258400   2.427572   3.373245   0.000000
    16  O    9.047053   3.791709   2.771075   3.422859   3.807507
    17  H    9.583740   4.404343   3.280538   3.799532   4.465952
    18  C    7.655073   2.509019   1.355200   2.105120   2.848034
    19  C    8.304652   3.713014   2.219951   2.243817   4.304552
    20  C    8.367027   4.187966   2.863856   2.727470   4.827412
    21  H    8.915702   4.462378   3.335628   3.485963   4.855379
    22  H    7.432039   3.709300   2.567989   2.273540   4.505940
    23  H    9.005636   5.160938   3.773722   3.427743   5.868009
    24  C    7.805117   3.996312   2.513804   1.962703   4.872359
    25  H    8.486118   5.006669   3.515468   2.857015   5.905041
    26  H    6.793226   3.491469   2.170738   1.257814   4.554061
    27  H    8.005534   4.153844   2.817091   2.464318   4.930883
    28  C    9.789191   4.982724   3.583529   3.728598   5.333666
    29  H   10.262108   5.215485   3.970695   4.314544   5.358992
    30  H   10.340339   5.824411   4.345225   4.267642   6.291075
    31  H    9.949722   5.109936   3.802430   4.015358   5.387181
                   16         17         18         19         20
    16  O    0.000000
    17  H    0.960000   0.000000
    18  C    1.430000   1.970203   0.000000
    19  C    1.929456   1.892638   1.540000   0.000000
    20  C    3.033617   2.626652   2.514809   1.540000   0.000000
    21  H    2.981660   2.379954   2.732978   2.148263   1.070000
    22  H    3.653542   3.440739   2.732978   2.148263   1.070000
    23  H    3.776225   3.253053   3.444314   2.148263   1.070000
    24  C    3.126192   3.310618   2.514809   1.540000   2.514809
    25  H    3.850990   3.826650   3.444314   2.148263   2.732978
    26  H    3.730766   3.987427   2.732978   2.148263   2.732978
    27  H    3.139547   3.542119   2.732978   2.148263   3.444314
    28  C    1.832155   1.439975   2.514809   1.540000   2.514809
    29  H    1.744781   0.915647   2.732978   2.148263   2.732978
    30  H    2.900662   2.399288   3.444314   2.148263   2.732978
    31  H    1.854851   1.913097   2.732978   2.148263   3.444314
                   21         22         23         24         25
    21  H    0.000000
    22  H    1.747303   0.000000
    23  H    1.747303   1.747303   0.000000
    24  C    3.444314   2.732978   2.732978   0.000000
    25  H    3.710993   3.062243   2.514809   1.070000   0.000000
    26  H    3.710993   2.514809   3.062243   1.070000   1.747303
    27  H    4.262112   3.710993   3.710993   1.070000   1.747303
    28  C    2.732978   3.444314   2.732978   2.514809   2.732978
    29  H    2.514809   3.710993   3.062243   3.444314   3.710993
    30  H    3.062243   3.710993   2.514809   2.732978   2.514809
    31  H    3.710993   4.262112   3.710993   2.732978   3.062243
                   26         27         28         29         30
    26  H    0.000000
    27  H    1.747303   0.000000
    28  C    3.444314   2.732978   0.000000
    29  H    4.262112   3.710993   1.070000   0.000000
    30  H    3.710993   3.062243   1.070000   1.747303   0.000000
    31  H    3.710993   2.514809   1.070000   1.747303   1.747303
                   31
    31  H    0.000000
 Stoichiometry    C13H16O2
 Framework group  C1[X(C13H16O2)]
 Deg. of freedom    87
 Full point group                 C1      NOp   1
 Largest Abelian subgroup         C1      NOp   1
 Largest concise Abelian subgroup C1      NOp   1
                         Standard orientation:                         
 ---------------------------------------------------------------------
 Center     Atomic      Atomic             Coordinates (Angstroms)
 Number     Number       Type             X           Y           Z
 ---------------------------------------------------------------------
      1          6           0       -3.371439   -1.669743   -0.094317
      2          6           0       -2.111543   -1.056095   -0.089807
      3          6           0       -2.012092    0.339314   -0.006951
      4          6           0       -3.172538    1.121075    0.071395
      5          6           0       -4.432434    0.507427    0.066884
      6          6           0       -4.531884   -0.887982   -0.015973
      7          1           0       -3.447371   -2.735169   -0.157581
      8          1           0       -1.225517   -1.652987   -0.149626
      9          1           0       -3.096605    2.186500    0.134658
     10          1           0       -5.318459    1.104319    0.126701
     11          1           0       -5.493843   -1.356516   -0.019419
     12          6           0       -0.627591    1.013652   -0.001991
     13          6           0        0.647624    0.154574   -0.088082
     14          1           0        0.571691   -0.910852   -0.151347
     15          8           0       -0.538289    2.266672    0.072414
     16          8           0        3.131540    1.351308   -0.365281
     17          1           0        3.764961    1.095937    0.309378
     18          6           0        1.865985    0.747992   -0.083717
     19          6           0        2.765324   -0.492910    0.067781
     20          6           0        2.720675   -0.984227    1.526621
     21          1           0        3.070971   -0.208547    2.175090
     22          1           0        1.714491   -1.239093    1.786500
     23          1           0        3.345540   -1.846413    1.631883
     24          6           0        2.261159   -1.609311   -0.865529
     25          1           0        2.886024   -2.471496   -0.760268
     26          1           0        1.254975   -1.864176   -0.605650
     27          1           0        2.292181   -1.267941   -1.879139
     28          6           0        4.213477   -0.126095   -0.306250
     29          1           0        4.563773    0.649586    0.342218
     30          1           0        4.838342   -0.988280   -0.200989
     31          1           0        4.244499    0.215275   -1.319860
 ---------------------------------------------------------------------
 Rotational constants (GHZ):      1.4531260      0.2862906      0.2530943
 Standard basis: 6-311G (5D, 7F)
 There are   243 symmetry adapted basis functions of A   symmetry.
 Integral buffers will be    262144 words long.
 Raffenetti 1 integral format.
 Two-electron integral symmetry is turned on.
   243 basis functions,   470 primitive gaussians,   243 cartesian basis functions
    55 alpha electrons       55 beta electrons
       nuclear repulsion energy       960.0678634566 Hartrees.
 NAtoms=   31 NActive=   31 NUniq=   31 SFac= 7.50D-01 NAtFMM=   80 NAOKFM=F Big=F
 One-electron integrals computed using PRISM.
 NBasis=   243 RedAO= T  NBF=   243
 NBsUse=   243 1.00D-06 NBFU=   243
 Harris functional with IExCor=  205 diagonalized for initial guess.
 ExpMin= 1.03D-01 ExpMax= 8.59D+03 ExpMxC= 1.30D+03 IAcc=1 IRadAn=         1 AccDes= 0.00D+00
 HarFok:  IExCor=  205 AccDes= 0.00D+00 IRadAn=         1 IDoV= 1
 ScaDFX=  1.000000  1.000000  1.000000  1.000000
 FoFCou: FMM=F IPFlag=           0 FMFlag=      100000 FMFlg1=           0
         NFxFlg=           0 DoJE=T BraDBF=F KetDBF=T FulRan=T
         Omega=  0.000000  0.000000  1.000000  0.000000  0.000000 ICntrl=     500 IOpCl=  0
         NMat0=    1 NMatS0=    1 NMatT0=    0 NMatD0=    1 NMtDS0=    0 NMtDT0=    0
         I1Cent=           4 NGrid=           0.
 Petite list used in FoFCou.
 Initial guess orbital symmetries:
       Occupied  (A) (A) (A) (A) (A) (A) (A) (A) (A) (A) (A) (A)
                 (A) (A) (A) (A) (A) (A) (A) (A) (A) (A) (A) (A)
                 (A) (A) (A) (A) (A) (A) (A) (A) (A) (A) (A) (A)
                 (A) (A) (A) (A) (A) (A) (A) (A) (A) (A) (A) (A)
                 (A) (A) (A) (A) (A) (A) (A)
       Virtual   (A) (A) (A) (A) (A) (A) (A) (A) (A) (A) (A) (A)
                 (A) (A) (A) (A) (A) (A) (A) (A) (A) (A) (A) (A)
                 (A) (A) (A) (A) (A) (A) (A) (A) (A) (A) (A) (A)
                 (A) (A) (A) (A) (A) (A) (A) (A) (A) (A) (A) (A)
                 (A) (A) (A) (A) (A) (A) (A) (A) (A) (A) (A) (A)
                 (A) (A) (A) (A) (A) (A) (A) (A) (A) (A) (A) (A)
                 (A) (A) (A) (A) (A) (A) (A) (A) (A) (A) (A) (A)
                 (A) (A) (A) (A) (A) (A) (A) (A) (A) (A) (A) (A)
                 (A) (A) (A) (A) (A) (A) (A) (A) (A) (A) (A) (A)
                 (A) (A) (A) (A) (A) (A) (A) (A) (A) (A) (A) (A)
                 (A) (A) (A) (A) (A) (A) (A) (A) (A) (A) (A) (A)
                 (A) (A) (A) (A) (A) (A) (A) (A) (A) (A) (A) (A)
                 (A) (A) (A) (A) (A) (A) (A) (A) (A) (A) (A) (A)
                 (A) (A) (A) (A) (A) (A) (A) (A) (A) (A) (A) (A)
                 (A) (A) (A) (A) (A) (A) (A) (A) (A) (A) (A) (A)
                 (A) (A) (A) (A) (A) (A) (A) (A)
 The electronic state of the initial guess is 1-A.
 Requested convergence on RMS density matrix=1.00D-08 within 128 cycles.
 Requested convergence on MAX density matrix=1.00D-06.
 Requested convergence on             energy=1.00D-06.
 No special actions if energy rises.
 Integral accuracy reduced to 1.0D-05 until final iterations.
 Initial convergence to 1.0D-05 achieved.  Increase integral accuracy.
 SCF Done:  E(RHF) =  -650.795154852     A.U. after   17 cycles
             Convg  =    0.8899D-08             -V/T =  1.9980

 **********************************************************************

            Population analysis using the SCF density.

 **********************************************************************

 Orbital symmetries:
       Occupied  (A) (A) (A) (A) (A) (A) (A) (A) (A) (A) (A) (A)
                 (A) (A) (A) (A) (A) (A) (A) (A) (A) (A) (A) (A)
                 (A) (A) (A) (A) (A) (A) (A) (A) (A) (A) (A) (A)
                 (A) (A) (A) (A) (A) (A) (A) (A) (A) (A) (A) (A)
                 (A) (A) (A) (A) (A) (A) (A)
       Virtual   (A) (A) (A) (A) (A) (A) (A) (A) (A) (A) (A) (A)
                 (A) (A) (A) (A) (A) (A) (A) (A) (A) (A) (A) (A)
                 (A) (A) (A) (A) (A) (A) (A) (A) (A) (A) (A) (A)
                 (A) (A) (A) (A) (A) (A) (A) (A) (A) (A) (A) (A)
                 (A) (A) (A) (A) (A) (A) (A) (A) (A) (A) (A) (A)
                 (A) (A) (A) (A) (A) (A) (A) (A) (A) (A) (A) (A)
                 (A) (A) (A) (A) (A) (A) (A) (A) (A) (A) (A) (A)
                 (A) (A) (A) (A) (A) (A) (A) (A) (A) (A) (A) (A)
                 (A) (A) (A) (A) (A) (A) (A) (A) (A) (A) (A) (A)
                 (A) (A) (A) (A) (A) (A) (A) (A) (A) (A) (A) (A)
                 (A) (A) (A) (A) (A) (A) (A) (A) (A) (A) (A) (A)
                 (A) (A) (A) (A) (A) (A) (A) (A) (A) (A) (A) (A)
                 (A) (A) (A) (A) (A) (A) (A) (A) (A) (A) (A) (A)
                 (A) (A) (A) (A) (A) (A) (A) (A) (A) (A) (A) (A)
                 (A) (A) (A) (A) (A) (A) (A) (A) (A) (A) (A) (A)
                 (A) (A) (A) (A) (A) (A) (A) (A)
 The electronic state is 1-A.
 Alpha  occ. eigenvalues --  -20.57912 -20.53530 -11.35081 -11.34239 -11.26469
 Alpha  occ. eigenvalues --  -11.26163 -11.26135 -11.26048 -11.25733 -11.25390
 Alpha  occ. eigenvalues --  -11.25280 -11.25242 -11.25073 -11.22919 -11.22844
 Alpha  occ. eigenvalues --   -1.46998  -1.36423  -1.16815  -1.14826  -1.07424
 Alpha  occ. eigenvalues --   -1.04259  -1.03020  -0.98300  -0.97103  -0.90741
 Alpha  occ. eigenvalues --   -0.86054  -0.84208  -0.79454  -0.76809  -0.72998
 Alpha  occ. eigenvalues --   -0.70859  -0.68489  -0.67551  -0.66655  -0.64093
 Alpha  occ. eigenvalues --   -0.62111  -0.60846  -0.60297  -0.59426  -0.59075
 Alpha  occ. eigenvalues --   -0.57436  -0.55682  -0.53896  -0.53111  -0.52173
 Alpha  occ. eigenvalues --   -0.50359  -0.49868  -0.49642  -0.48744  -0.46740
 Alpha  occ. eigenvalues --   -0.41584  -0.38744  -0.35401  -0.34639  -0.34364
 Alpha virt. eigenvalues --    0.06527   0.11818   0.12346   0.13720   0.14940
 Alpha virt. eigenvalues --    0.16767   0.17780   0.19061   0.19202   0.19773
 Alpha virt. eigenvalues --    0.21091   0.21145   0.21885   0.24225   0.24449
 Alpha virt. eigenvalues --    0.25567   0.25665   0.26822   0.29005   0.31601
 Alpha virt. eigenvalues --    0.33309   0.33529   0.35116   0.35970   0.36586
 Alpha virt. eigenvalues --    0.38455   0.39818   0.40466   0.42787   0.43659
 Alpha virt. eigenvalues --    0.44685   0.44993   0.45314   0.46168   0.50029
 Alpha virt. eigenvalues --    0.52326   0.52866   0.54926   0.55850   0.56190
 Alpha virt. eigenvalues --    0.56824   0.57982   0.59084   0.59580   0.60023
 Alpha virt. eigenvalues --    0.61495   0.61736   0.63116   0.63385   0.63730
 Alpha virt. eigenvalues --    0.64677   0.65059   0.65877   0.67782   0.69553
 Alpha virt. eigenvalues --    0.71005   0.72087   0.72637   0.74310   0.76022
 Alpha virt. eigenvalues --    0.77277   0.78142   0.79244   0.80258   0.80735
 Alpha virt. eigenvalues --    0.81288   0.81565   0.82008   0.82413   0.83042
 Alpha virt. eigenvalues --    0.83442   0.84002   0.84377   0.85623   0.86155
 Alpha virt. eigenvalues --    0.86977   0.87270   0.88490   0.90526   0.91540
 Alpha virt. eigenvalues --    0.92047   0.94019   0.95137   0.96005   0.96722
 Alpha virt. eigenvalues --    0.99249   1.00899   1.03573   1.04436   1.07118
 Alpha virt. eigenvalues --    1.09264   1.10785   1.13513   1.14356   1.17266
 Alpha virt. eigenvalues --    1.19836   1.21017   1.21679   1.24174   1.25485
 Alpha virt. eigenvalues --    1.25905   1.28297   1.32519   1.33873   1.37917
 Alpha virt. eigenvalues --    1.40282   1.43348   1.46846   1.49966   1.50803
 Alpha virt. eigenvalues --    1.97709   2.04000   2.53179   2.55459   2.55905
 Alpha virt. eigenvalues --    2.57936   2.60161   2.61035   2.63219   2.63707
 Alpha virt. eigenvalues --    2.64880   2.66360   2.68016   2.68429   2.68680
 Alpha virt. eigenvalues --    2.73428   2.80022   2.88765   2.89142   2.92467
 Alpha virt. eigenvalues --    2.95053   2.97562   3.02954   3.06481   3.07615
 Alpha virt. eigenvalues --    3.10293   3.13549   3.15968   3.20124   3.21485
 Alpha virt. eigenvalues --    3.23937   3.25265   3.26481   3.27874   3.29192
 Alpha virt. eigenvalues --    3.30487   3.30986   3.31590   3.33715   3.36462
 Alpha virt. eigenvalues --    3.38692   3.39375   3.43890   3.49398   3.50751
 Alpha virt. eigenvalues --    3.53381   3.54546   3.55021   3.57354   3.61158
 Alpha virt. eigenvalues --    3.63354   3.65499   3.68760   3.70118   3.73080
 Alpha virt. eigenvalues --    3.76327   3.87551   5.43328   5.47614   5.52297
 Alpha virt. eigenvalues --    5.52788   5.58741   5.70402  24.26646  24.42975
 Alpha virt. eigenvalues --   24.49079  24.50180  24.56587  24.61582  24.70780
 Alpha virt. eigenvalues --   24.75128  24.76699  24.77821  24.78950  24.84922
 Alpha virt. eigenvalues --   25.01961  51.62472  51.63181
          Condensed to atoms (all electrons):
              1          2          3          4          5          6
     1  C    5.073287   0.462379  -0.065715  -0.023769  -0.074418   0.499438
     2  C    0.462379   5.087043   0.403766  -0.106700  -0.023660  -0.095497
     3  C   -0.065715   0.403766   5.837100   0.441287  -0.061035  -0.009612
     4  C   -0.023769  -0.106700   0.441287   5.085353   0.437819  -0.082059
     5  C   -0.074418  -0.023660  -0.061035   0.437819   5.098122   0.479286
     6  C    0.499438  -0.095497  -0.009612  -0.082059   0.479286   4.997031
     7  H    0.397393  -0.035896   0.005495  -0.000192   0.005376  -0.037350
     8  H   -0.029280   0.380238  -0.048138   0.003546   0.000115   0.004236
     9  H   -0.000425   0.004139  -0.040728   0.398349  -0.041576   0.004601
    10  H    0.005731  -0.000273   0.005958  -0.037759   0.400202  -0.040607
    11  H   -0.041399   0.007581  -0.001491   0.006855  -0.041333   0.399162
    12  C    0.007392   0.000482   0.002599  -0.042498   0.007053   0.001016
    13  C    0.000060   0.018890  -0.190417   0.013648  -0.000588   0.000091
    14  H   -0.000052  -0.007439   0.013136   0.000013  -0.000013   0.000004
    15  O   -0.000104   0.004360  -0.154582   0.011076   0.000625   0.000005
    16  O    0.000000  -0.000006   0.000006   0.000000   0.000000   0.000000
    17  H    0.000000   0.000008  -0.000015  -0.000001   0.000000   0.000000
    18  C   -0.000087   0.000095   0.015394  -0.000522   0.000008   0.000002
    19  C    0.000004   0.000570  -0.002236   0.000009   0.000000   0.000000
    20  C   -0.000003  -0.000154   0.000308   0.000001   0.000000   0.000000
    21  H    0.000000  -0.000005   0.000018   0.000000   0.000000   0.000000
    22  H    0.000012   0.000327  -0.000085  -0.000003   0.000000  -0.000001
    23  H    0.000000   0.000002  -0.000012   0.000000   0.000000   0.000000
    24  C    0.000004  -0.000486  -0.000120   0.000010   0.000000   0.000000
    25  H    0.000001  -0.000001  -0.000019   0.000000   0.000000   0.000000
    26  H    0.000100   0.003221  -0.001934   0.000018  -0.000001   0.000002
    27  H   -0.000004  -0.000092   0.000144   0.000000   0.000000   0.000000
    28  C    0.000000  -0.000006   0.000023   0.000000   0.000000   0.000000
    29  H    0.000000   0.000000  -0.000001   0.000000   0.000000   0.000000
    30  H    0.000000   0.000000   0.000000   0.000000   0.000000   0.000000
    31  H    0.000000   0.000000  -0.000001   0.000000   0.000000   0.000000
              7          8          9         10         11         12
     1  C    0.397393  -0.029280  -0.000425   0.005731  -0.041399   0.007392
     2  C   -0.035896   0.380238   0.004139  -0.000273   0.007581   0.000482
     3  C    0.005495  -0.048138  -0.040728   0.005958  -0.001491   0.002599
     4  C   -0.000192   0.003546   0.398349  -0.037759   0.006855  -0.042498
     5  C    0.005376   0.000115  -0.041576   0.400202  -0.041333   0.007053
     6  C   -0.037350   0.004236   0.004601  -0.040607   0.399162   0.001016
     7  H    0.508321  -0.003063   0.000012  -0.000201  -0.003937  -0.000296
     8  H   -0.003063   0.506366  -0.000185   0.000012  -0.000179   0.001001
     9  H    0.000012  -0.000185   0.453450  -0.003472  -0.000119   0.000219
    10  H   -0.000201   0.000012  -0.003472   0.504458  -0.004012  -0.000322
    11  H   -0.003937  -0.000179  -0.000119  -0.004012   0.509520  -0.000027
    12  C   -0.000296   0.001001   0.000219  -0.000322  -0.000027   5.084284
    13  C    0.000043   0.004209   0.002210  -0.000004   0.000000  -0.019931
    14  H    0.000033  -0.008105  -0.000139   0.000000   0.000000  -0.067869
    15  O    0.000001  -0.000085   0.012079  -0.000029   0.000000   0.652546
    16  O    0.000000  -0.000015   0.000000   0.000000   0.000000  -0.005893
    17  H    0.000000   0.000015   0.000000   0.000000   0.000000   0.001771
    18  C    0.000000   0.001556  -0.000069   0.000000   0.000000  -0.060458
    19  C    0.000000  -0.000247   0.000002   0.000000   0.000000   0.031434
    20  C    0.000000  -0.000177   0.000000   0.000000   0.000000  -0.003783
    21  H    0.000000  -0.000005   0.000000   0.000000   0.000000  -0.000556
    22  H   -0.000001   0.000146   0.000001   0.000000   0.000000   0.001061
    23  H    0.000000   0.000024   0.000000   0.000000   0.000000   0.000197
    24  C   -0.000002   0.001670   0.000001   0.000000   0.000000  -0.007399
    25  H    0.000000   0.000068   0.000000   0.000000   0.000000   0.000215
    26  H   -0.000023   0.006607   0.000006   0.000000   0.000000   0.005971
    27  H    0.000000  -0.000185   0.000000   0.000000   0.000000  -0.001094
    28  C    0.000000   0.000000   0.000000   0.000000   0.000000  -0.001427
    29  H    0.000000  -0.000001   0.000000   0.000000   0.000000  -0.000053
    30  H    0.000000  -0.000001   0.000000   0.000000   0.000000  -0.000002
    31  H    0.000000   0.000001   0.000000   0.000000   0.000000   0.000028
             13         14         15         16         17         18
     1  C    0.000060  -0.000052  -0.000104   0.000000   0.000000  -0.000087
     2  C    0.018890  -0.007439   0.004360  -0.000006   0.000008   0.000095
     3  C   -0.190417   0.013136  -0.154582   0.000006  -0.000015   0.015394
     4  C    0.013648   0.000013   0.011076   0.000000  -0.000001  -0.000522
     5  C   -0.000588  -0.000013   0.000625   0.000000   0.000000   0.000008
     6  C    0.000091   0.000004   0.000005   0.000000   0.000000   0.000002
     7  H    0.000043   0.000033   0.000001   0.000000   0.000000   0.000000
     8  H    0.004209  -0.008105  -0.000085  -0.000015   0.000015   0.001556
     9  H    0.002210  -0.000139   0.012079   0.000000   0.000000  -0.000069
    10  H   -0.000004   0.000000  -0.000029   0.000000   0.000000   0.000000
    11  H    0.000000   0.000000   0.000000   0.000000   0.000000   0.000000
    12  C   -0.019931  -0.067869   0.652546  -0.005893   0.001771  -0.060458
    13  C    6.028777   0.372307  -0.157417  -0.027041  -0.001951   0.372975
    14  H    0.372307   0.574218   0.004750   0.005014  -0.002104  -0.092859
    15  O   -0.157417   0.004750   8.143328  -0.000107   0.000054   0.022881
    16  O   -0.027041   0.005014  -0.000107   9.026532   0.232609   0.120934
    17  H   -0.001951  -0.002104   0.000054   0.232609   0.398365  -0.004046
    18  C    0.372975  -0.092859   0.022881   0.120934  -0.004046   5.172955
    19  C   -0.160638  -0.036201  -0.000351  -0.270757   0.051859   0.135275
    20  C   -0.016626   0.010676   0.000072   0.015786  -0.012656  -0.080882
    21  H    0.003159   0.000753   0.000005   0.003435  -0.000212  -0.003557
    22  H    0.005131   0.000956  -0.000044  -0.000758   0.000820  -0.005957
    23  H    0.001080  -0.001893  -0.000001  -0.000508   0.000748   0.008219
    24  C   -0.067127  -0.005843  -0.000071   0.029311  -0.004670  -0.091604
    25  H    0.006225  -0.003732   0.000001  -0.000630   0.000719   0.007211
    26  H   -0.023381  -0.038582  -0.000214  -0.001421   0.000656   0.000025
    27  H   -0.002044   0.006287   0.000014   0.002267  -0.001040   0.001071
    28  C    0.009508   0.004840  -0.000011  -0.350773  -0.048569  -0.094066
    29  H   -0.001393  -0.000033  -0.000009  -0.130415   0.028080   0.019067
    30  H   -0.000066   0.000077   0.000000   0.021620  -0.007697   0.003736
    31  H   -0.001233  -0.000406  -0.000002  -0.045272   0.003339   0.009019
             19         20         21         22         23         24
     1  C    0.000004  -0.000003   0.000000   0.000012   0.000000   0.000004
     2  C    0.000570  -0.000154  -0.000005   0.000327   0.000002  -0.000486
     3  C   -0.002236   0.000308   0.000018  -0.000085  -0.000012  -0.000120
     4  C    0.000009   0.000001   0.000000  -0.000003   0.000000   0.000010
     5  C    0.000000   0.000000   0.000000   0.000000   0.000000   0.000000
     6  C    0.000000   0.000000   0.000000  -0.000001   0.000000   0.000000
     7  H    0.000000   0.000000   0.000000  -0.000001   0.000000  -0.000002
     8  H   -0.000247  -0.000177  -0.000005   0.000146   0.000024   0.001670
     9  H    0.000002   0.000000   0.000000   0.000001   0.000000   0.000001
    10  H    0.000000   0.000000   0.000000   0.000000   0.000000   0.000000
    11  H    0.000000   0.000000   0.000000   0.000000   0.000000   0.000000
    12  C    0.031434  -0.003783  -0.000556   0.001061   0.000197  -0.007399
    13  C   -0.160638  -0.016626   0.003159   0.005131   0.001080  -0.067127
    14  H   -0.036201   0.010676   0.000753   0.000956  -0.001893  -0.005843
    15  O   -0.000351   0.000072   0.000005  -0.000044  -0.000001  -0.000071
    16  O   -0.270757   0.015786   0.003435  -0.000758  -0.000508   0.029311
    17  H    0.051859  -0.012656  -0.000212   0.000820   0.000748  -0.004670
    18  C    0.135275  -0.080882  -0.003557  -0.005957   0.008219  -0.091604
    19  C    7.147821   0.036751  -0.051373  -0.044450  -0.036304   0.039445
    20  C    0.036751   5.448217   0.382706   0.395301   0.376513  -0.081282
    21  H   -0.051373   0.382706   0.554426  -0.023628  -0.031033   0.011839
    22  H   -0.044450   0.395301  -0.023628   0.506772  -0.023291  -0.004543
    23  H   -0.036304   0.376513  -0.031033  -0.023291   0.541399  -0.010367
    24  C    0.039445  -0.081282   0.011839  -0.004543  -0.010367   5.519883
    25  H   -0.037938  -0.003460  -0.000353  -0.000316   0.002118   0.380842
    26  H   -0.045360  -0.007875  -0.000390   0.001915   0.001292   0.400986
    27  H   -0.057789   0.008266  -0.000289  -0.000331  -0.000295   0.399725
    28  C    0.010274  -0.093056  -0.003321   0.007503  -0.003513  -0.073006
    29  H   -0.078852   0.000820   0.003127  -0.000069  -0.000422   0.007736
    30  H   -0.050275   0.001891   0.000226  -0.000370   0.000075  -0.001990
    31  H   -0.037272   0.004132  -0.000450  -0.000185   0.000172  -0.003036
             25         26         27         28         29         30
     1  C    0.000001   0.000100  -0.000004   0.000000   0.000000   0.000000
     2  C   -0.000001   0.003221  -0.000092  -0.000006   0.000000   0.000000
     3  C   -0.000019  -0.001934   0.000144   0.000023  -0.000001   0.000000
     4  C    0.000000   0.000018   0.000000   0.000000   0.000000   0.000000
     5  C    0.000000  -0.000001   0.000000   0.000000   0.000000   0.000000
     6  C    0.000000   0.000002   0.000000   0.000000   0.000000   0.000000
     7  H    0.000000  -0.000023   0.000000   0.000000   0.000000   0.000000
     8  H    0.000068   0.006607  -0.000185   0.000000  -0.000001  -0.000001
     9  H    0.000000   0.000006   0.000000   0.000000   0.000000   0.000000
    10  H    0.000000   0.000000   0.000000   0.000000   0.000000   0.000000
    11  H    0.000000   0.000000   0.000000   0.000000   0.000000   0.000000
    12  C    0.000215   0.005971  -0.001094  -0.001427  -0.000053  -0.000002
    13  C    0.006225  -0.023381  -0.002044   0.009508  -0.001393  -0.000066
    14  H   -0.003732  -0.038582   0.006287   0.004840  -0.000033   0.000077
    15  O    0.000001  -0.000214   0.000014  -0.000011  -0.000009   0.000000
    16  O   -0.000630  -0.001421   0.002267  -0.350773  -0.130415   0.021620
    17  H    0.000719   0.000656  -0.001040  -0.048569   0.028080  -0.007697
    18  C    0.007211   0.000025   0.001071  -0.094066   0.019067   0.003736
    19  C   -0.037938  -0.045360  -0.057789   0.010274  -0.078852  -0.050275
    20  C   -0.003460  -0.007875   0.008266  -0.093056   0.000820   0.001891
    21  H   -0.000353  -0.000390  -0.000289  -0.003321   0.003127   0.000226
    22  H   -0.000316   0.001915  -0.000331   0.007503  -0.000069  -0.000370
    23  H    0.002118   0.001292  -0.000295  -0.003513  -0.000422   0.000075
    24  C    0.380842   0.400986   0.399725  -0.073006   0.007736  -0.001990
    25  H    0.534415  -0.020572  -0.023706  -0.007826  -0.000151  -0.000569
    26  H   -0.020572   0.612144  -0.031210   0.005337  -0.000346  -0.000365
    27  H   -0.023706  -0.031210   0.503423  -0.000918  -0.000056   0.000610
    28  C   -0.007826   0.005337  -0.000918   5.916683   0.407528   0.368198
    29  H   -0.000151  -0.000346  -0.000056   0.407528   0.695081  -0.024334
    30  H   -0.000569  -0.000365   0.000610   0.368198  -0.024334   0.565784
    31  H    0.000714   0.000375   0.001342   0.399947  -0.023640  -0.026133
             31
     1  C    0.000000
     2  C    0.000000
     3  C   -0.000001
     4  C    0.000000
     5  C    0.000000
     6  C    0.000000
     7  H    0.000000
     8  H    0.000001
     9  H    0.000000
    10  H    0.000000
    11  H    0.000000
    12  C    0.000028
    13  C   -0.001233
    14  H   -0.000406
    15  O   -0.000002
    16  O   -0.045272
    17  H    0.003339
    18  C    0.009019
    19  C   -0.037272
    20  C    0.004132
    21  H   -0.000450
    22  H   -0.000185
    23  H    0.000172
    24  C   -0.003036
    25  H    0.000714
    26  H    0.000375
    27  H    0.001342
    28  C    0.399947
    29  H   -0.023640
    30  H   -0.026133
    31  H    0.445119
 Mulliken atomic charges:
              1
     1  C   -0.210542
     2  C   -0.102887
     3  C   -0.149095
     4  C   -0.104482
     5  C   -0.185982
     6  C   -0.119748
     7  H    0.164285
     8  H    0.179857
     9  H    0.211643
    10  H    0.170316
    11  H    0.169379
    12  C    0.414342
    13  C   -0.168455
    14  H    0.272206
    15  O   -0.538768
    16  O   -0.623917
    17  H    0.363918
    18  C    0.543683
    19  C   -0.543400
    20  C   -0.381489
    21  H    0.155478
    22  H    0.184087
    23  H    0.175799
    24  C   -0.439905
    25  H    0.166743
    26  H    0.133021
    27  H    0.195902
    28  C   -0.453349
    29  H    0.098336
    30  H    0.149586
    31  H    0.273439
 Sum of Mulliken atomic charges =   0.00000
 Mulliken charges with hydrogens summed into heavy atoms:
              1
     1  C   -0.046257
     2  C    0.076970
     3  C   -0.149095
     4  C    0.107162
     5  C   -0.015666
     6  C    0.049632
    12  C    0.414342
    13  C    0.103751
    15  O   -0.538768
    16  O   -0.259999
    18  C    0.543683
    19  C   -0.543400
    20  C    0.133874
    24  C    0.055761
    28  C    0.068012
 Sum of Mulliken charges with hydrogens summed into heavy atoms =   0.00000
 Electronic spatial extent (au):  <R**2>=           4317.2213
 Charge=              0.0000 electrons
 Dipole moment (field-independent basis, Debye):
    X=              1.0845    Y=             -5.1632    Z=              0.7866  Tot=              5.3342
 Quadrupole moment (field-independent basis, Debye-Ang):
   XX=            -71.4557   YY=           -100.6511   ZZ=            -95.6545
   XY=             -1.1855   XZ=              3.2030   YZ=              2.2104
 Traceless Quadrupole moment (field-independent basis, Debye-Ang):
   XX=             17.7981   YY=            -11.3973   ZZ=             -6.4007
   XY=             -1.1855   XZ=              3.2030   YZ=              2.2104
 Octapole moment (field-independent basis, Debye-Ang**2):
  XXX=             -4.1738  YYY=            -29.0619  ZZZ=             -3.1721  XYY=            -12.3961
  XXY=              2.2284  XXZ=             12.9918  XZZ=             22.9338  YZZ=              6.5055
  YYZ=              2.2143  XYZ=              5.8031
 Hexadecapole moment (field-independent basis, Debye-Ang**3):
 XXXX=          -4253.0587 YYYY=           -920.2427 ZZZZ=           -285.3693 XXXY=             29.9949
 XXXZ=             26.4755 YYYX=              6.9980 YYYZ=              3.2611 ZZZX=            -13.1002
 ZZZY=              0.5303 XXYY=           -901.3797 XXZZ=           -898.0176 YYZZ=           -199.6699
 XXYZ=             32.0016 YYXZ=             13.0827 ZZXY=              1.1244
 N-N= 9.600678634566D+02 E-N=-3.441499009400D+03  KE= 6.520785148857D+02
 Calling FoFJK, ICntrl=      2127 FMM=F ISym2X=0 I1Cent= 0 IOpClX= 0 NMat=1 NMatS=1 NMatT=0.
 ***** Axes restored to original set *****
 -------------------------------------------------------------------
 Center     Atomic                   Forces (Hartrees/Bohr)
 Number     Number              X              Y              Z
 -------------------------------------------------------------------
      1        6           0.005984113    0.011492943   -0.003172489
      2        6          -0.007772405    0.011562632    0.011007056
      3        6           0.017255234   -0.003033679   -0.017030560
      4        6          -0.008276411   -0.008107172    0.006640573
      5        6           0.005771322   -0.012123358   -0.009460913
      6        6           0.010585010   -0.000123650   -0.010994772
      7        1          -0.000078784   -0.000292025   -0.000024786
      8        1          -0.003292555    0.000132121    0.003527563
      9        1           0.001179842   -0.002214974   -0.001830158
     10        1           0.000230136    0.000238703   -0.000222399
     11        1          -0.000270503   -0.000289372    0.000222524
     12        6           0.002406875    0.014860942   -0.011196165
     13        6           0.001477429    0.148627912    0.030126327
     14        1           0.020521875    0.040788328    0.016022219
     15        8          -0.021766580   -0.044404676    0.012144248
     16        8          -0.031257861    0.335312570    0.063590894
     17        1          -0.016657352    0.089977724    0.036092146
     18        6           0.002529842   -0.148406797   -0.044158518
     19        6          -0.027809835   -0.101256234    0.040136671
     20        6          -0.008732340   -0.001866172   -0.010861203
     21        1           0.010100871    0.002423434    0.005624012
     22        1           0.001908937   -0.001313476    0.007304007
     23        1           0.004761635   -0.008491078    0.001191640
     24        6           0.017361242   -0.023947326   -0.015188579
     25        1          -0.002815079   -0.009753697   -0.002909436
     26        1          -0.007263503   -0.031428476   -0.017429702
     27        1          -0.007438319    0.001803077   -0.004236965
     28        6          -0.028723191   -0.141733019   -0.025371885
     29        1           0.055612021   -0.088893283   -0.047132357
     30        1           0.007458820   -0.013098743   -0.002047422
     31        1           0.007009512   -0.016443177   -0.010361571
 -------------------------------------------------------------------
 Cartesian Forces:  Max     0.335312570 RMS     0.049989506

 GradGradGradGradGradGradGradGradGradGradGradGradGradGradGradGradGradGrad
 Berny optimization.
 Internal  Forces:  Max     0.236565576 RMS     0.032657952
 Search for a local minimum.
 Step number   1 out of a maximum of  172
 All quantities printed in internal units (Hartrees-Bohrs-Radians)
 Mixed Optimization -- RFO/linear search
 Second derivative matrix not updated -- first step.
     Eigenvalues ---    0.00237   0.00237   0.00237   0.00237   0.00237
     Eigenvalues ---    0.00431   0.00648   0.01459   0.01506   0.02070
     Eigenvalues ---    0.02070   0.02070   0.02070   0.02070   0.02070
     Eigenvalues ---    0.02070   0.02070   0.02309   0.02681   0.02790
     Eigenvalues ---    0.04735   0.04845   0.05413   0.05672   0.05720
     Eigenvalues ---    0.05720   0.05720   0.05720   0.07176   0.08127
     Eigenvalues ---    0.08728   0.10993   0.12899   0.14433   0.15559
     Eigenvalues ---    0.16000   0.16000   0.16000   0.16000   0.16000
     Eigenvalues ---    0.16000   0.16000   0.16000   0.16000   0.16000
     Eigenvalues ---    0.16000   0.16000   0.17140   0.20813   0.22000
     Eigenvalues ---    0.22000   0.22000   0.23485   0.25000   0.25000
     Eigenvalues ---    0.25000   0.26173   0.27771   0.28519   0.28519
     Eigenvalues ---    0.28519   0.28519   0.34039   0.37230   0.37230
     Eigenvalues ---    0.37230   0.37230   0.37230   0.37230   0.37230
     Eigenvalues ---    0.37230   0.37230   0.37230   0.37230   0.37230
     Eigenvalues ---    0.37230   0.37230   0.38725   0.41268   0.41459
     Eigenvalues ---    0.45389   0.45389   0.45389   0.45389   0.49834
     Eigenvalues ---    0.53930   0.802091000.000001000.000001000.00000
     Eigenvalues --- 1000.000001000.000001000.000001000.000001000.00000
     Eigenvalues --- 1000.000001000.000001000.000001000.000001000.00000
     Eigenvalues --- 1000.000001000.000001000.000001000.000001000.00000
     Eigenvalues --- 1000.000001000.000001000.000001000.000001000.00000
     Eigenvalues --- 1000.000001000.000001000.000001000.000001000.00000
     Eigenvalues --- 1000.000001000.000001000.000001000.000001000.00000
     Eigenvalues --- 1000.000001000.000001000.000001000.000001000.00000
     Eigenvalues --- 1000.000001000.000001000.000001000.000001000.00000
     Eigenvalues --- 1000.000001000.000001000.000001000.000001000.00000
     Eigenvalues --- 1000.000001000.000001000.000001000.000001000.00000
     Eigenvalues --- 1000.000001000.000001000.000001000.000001000.00000
     Eigenvalues --- 1000.000001000.000001000.000001000.000001000.00000
     Eigenvalues --- 1000.000001000.000001000.000001000.000001000.00000
     Eigenvalues --- 1000.000001000.000001000.000001000.000001000.00000
     Eigenvalues --- 1000.000001000.00000
 RFO step:  Lambda=-3.25802498D-01 EMin= 2.36823967D-03
 Linear search not attempted -- first point.
 Maximum step size (   0.300) exceeded in Quadratic search.
    -- Step size scaled by   0.374
 Iteration  1 RMS(Cart)=  0.05595890 RMS(Int)=  0.00143283
 Iteration  2 RMS(Cart)=  0.00225944 RMS(Int)=  0.00034966
 Iteration  3 RMS(Cart)=  0.00000512 RMS(Int)=  0.00034965
 Iteration  4 RMS(Cart)=  0.00000000 RMS(Int)=  0.00034965
 Variable       Old X    -DE/DX   Delta X   Delta X   Delta X     New X
                                 (Linear)    (Quad)   (Total)
    R1        2.64826  -0.01548   0.00000  -0.00739  -0.00739   2.64087
    R2        2.64826  -0.01579   0.00000  -0.00759  -0.00759   2.64067
    R3        2.02201   0.00029   0.00000   0.00015   0.00015   2.02216
    R4        2.64826  -0.00828   0.00000  -0.00391  -0.00391   2.64435
    R5        2.02201  -0.00282   0.00000  -0.00151  -0.00151   2.02050
    R6        2.64826  -0.01316   0.00000  -0.00628  -0.00628   2.64199
    R7        2.91018  -0.02990   0.00000  -0.01828  -0.01828   2.89190
    R8        2.64826  -0.01681   0.00000  -0.00808  -0.00808   2.64018
    R9        2.02201  -0.00109   0.00000  -0.00058  -0.00058   2.02142
   R10        2.64826  -0.01366   0.00000  -0.00660  -0.00660   2.64167
   R11        2.02201   0.00002   0.00000   0.00001   0.00001   2.02202
   R12        2.02201   0.00037   0.00000   0.00020   0.00020   2.02220
   R13        2.91018  -0.03725   0.00000  -0.02277  -0.02277   2.88741
   R14        2.37803  -0.05088   0.00000  -0.01685  -0.01685   2.36118
   R15        2.02201  -0.04155   0.00000  -0.02223  -0.02223   1.99978
   R16        2.56096  -0.00937   0.00000  -0.00405  -0.00405   2.55691
   R17        1.81414   0.07869   0.00000   0.03466   0.03490   1.84904
   R18        2.70231  -0.01661   0.00000  -0.00647  -0.00564   2.69667
   R19        1.73032   0.19462   0.00000   0.13189   0.13209   1.86242
   R20        2.91018   0.23657   0.00000   0.14598   0.14614   3.05632
   R21        2.91018   0.01049   0.00000   0.00641   0.00641   2.91659
   R22        2.91018   0.03208   0.00000   0.01961   0.01961   2.92979
   R23        2.91018   0.02836   0.00000   0.01556   0.01485   2.92503
   R24        2.02201   0.01032   0.00000   0.00552   0.00552   2.02753
   R25        2.02201   0.00530   0.00000   0.00284   0.00284   2.02484
   R26        2.02201   0.00875   0.00000   0.00468   0.00468   2.02669
   R27        2.02201   0.00958   0.00000   0.00512   0.00512   2.02713
   R28        2.02201  -0.01481   0.00000  -0.00792  -0.00792   2.01408
   R29        2.02201   0.00792   0.00000   0.00424   0.00424   2.02624
   R30        2.02201   0.05901   0.00000   0.02788   0.02719   2.04920
   R31        2.02201   0.01424   0.00000   0.00762   0.00762   2.02962
   R32        2.02201  -0.00278   0.00000  -0.00149  -0.00149   2.02052
    A1        2.09440  -0.00037   0.00000  -0.00028  -0.00028   2.09411
    A2        2.09440   0.00009   0.00000   0.00006   0.00006   2.09446
    A3        2.09440   0.00029   0.00000   0.00022   0.00022   2.09461
    A4        2.09440   0.00154   0.00000   0.00114   0.00114   2.09554
    A5        2.09440  -0.00473   0.00000  -0.00362  -0.00362   2.09078
    A6        2.09440   0.00319   0.00000   0.00247   0.00247   2.09687
    A7        2.09440  -0.00371   0.00000  -0.00231  -0.00231   2.09208
    A8        2.09440   0.01606   0.00000   0.01037   0.01038   2.10477
    A9        2.09440  -0.01236   0.00000  -0.00806  -0.00806   2.08633
   A10        2.09440   0.00150   0.00000   0.00101   0.00101   2.09541
   A11        2.09440  -0.00369   0.00000  -0.00277  -0.00277   2.09163
   A12        2.09440   0.00219   0.00000   0.00175   0.00175   2.09615
   A13        2.09440   0.00084   0.00000   0.00044   0.00045   2.09484
   A14        2.09440  -0.00082   0.00000  -0.00053  -0.00053   2.09386
   A15        2.09440  -0.00002   0.00000   0.00009   0.00009   2.09448
   A16        2.09440   0.00020   0.00000  -0.00001  -0.00001   2.09439
   A17        2.09440  -0.00037   0.00000  -0.00020  -0.00020   2.09419
   A18        2.09440   0.00017   0.00000   0.00021   0.00021   2.09461
   A19        2.09440   0.00841   0.00000   0.00546   0.00546   2.09985
   A20        2.09440  -0.00628   0.00000  -0.00407  -0.00407   2.09032
   A21        2.09440  -0.00214   0.00000  -0.00139  -0.00139   2.09301
   A22        2.09440  -0.01372   0.00000  -0.01087  -0.01087   2.08353
   A23        2.09440  -0.00742   0.00000  -0.00508  -0.00508   2.08931
   A24        2.09440   0.02115   0.00000   0.01595   0.01594   2.11034
   A25        1.91063  -0.04846   0.00000  -0.03507  -0.03533   1.87530
   A26        2.38985   0.04750   0.00000   0.04633   0.04798   2.43783
   A27        2.94001   0.01102   0.00000   0.01352   0.01373   2.95374
   A28        1.74416  -0.03891   0.00000  -0.03071  -0.03219   1.71197
   A29        1.41264   0.05264   0.00000   0.04430   0.04469   1.45733
   A30        1.91063  -0.03903   0.00000  -0.03023  -0.03033   1.88030
   A31        1.91063   0.05638   0.00000   0.04884   0.04926   1.95989
   A32        1.91063   0.01836   0.00000   0.01801   0.01816   1.92879
   A33        1.91063   0.00814   0.00000   0.00552   0.00535   1.91598
   A34        1.91063   0.00778   0.00000   0.00239   0.00260   1.91323
   A35        1.91063  -0.05163   0.00000  -0.04453  -0.04493   1.86571
   A36        1.91063   0.00575   0.00000   0.00438   0.00437   1.91500
   A37        1.91063   0.00585   0.00000   0.00452   0.00451   1.91514
   A38        1.91063   0.00384   0.00000   0.00299   0.00298   1.91361
   A39        1.91063  -0.00618   0.00000  -0.00481  -0.00482   1.90581
   A40        1.91063  -0.00498   0.00000  -0.00386  -0.00387   1.90676
   A41        1.91063  -0.00429   0.00000  -0.00320  -0.00321   1.90742
   A42        1.91063  -0.00371   0.00000  -0.00353  -0.00353   1.90710
   A43        1.91063   0.04137   0.00000   0.03229   0.03221   1.94285
   A44        1.91063  -0.00080   0.00000  -0.00042  -0.00049   1.91014
   A45        1.91063  -0.02124   0.00000  -0.01673  -0.01673   1.89390
   A46        1.91063  -0.00352   0.00000  -0.00366  -0.00366   1.90697
   A47        1.91063  -0.01210   0.00000  -0.00795  -0.00809   1.90254
   A48        1.91063  -0.03814   0.00000  -0.02693  -0.02699   1.88365
   A49        1.91063   0.00939   0.00000   0.00802   0.00859   1.91922
   A50        1.91063   0.02226   0.00000   0.01583   0.01525   1.92588
   A51        1.91063   0.02148   0.00000   0.01667   0.01679   1.92742
   A52        1.91063  -0.00410   0.00000  -0.00593  -0.00582   1.90481
   A53        1.91063  -0.01089   0.00000  -0.00767  -0.00776   1.90287
   A54        1.61685   0.06509   0.00000   0.05321   0.05306   1.66991
    D1        0.00000  -0.00001   0.00000  -0.00001  -0.00001  -0.00001
    D2       -3.14159   0.00001   0.00000   0.00002   0.00002  -3.14157
    D3        3.14159  -0.00002   0.00000  -0.00002  -0.00002   3.14158
    D4        0.00000   0.00001   0.00000   0.00001   0.00001   0.00001
    D5        0.00000   0.00001   0.00000   0.00001   0.00001   0.00001
    D6        3.14159   0.00000   0.00000   0.00000   0.00000   3.14159
    D7        3.14159   0.00002   0.00000   0.00002   0.00002  -3.14157
    D8        0.00000   0.00000   0.00000   0.00001   0.00001   0.00000
    D9        0.00000   0.00002   0.00000   0.00002   0.00002   0.00002
   D10        3.14159   0.00013   0.00000   0.00014   0.00014  -3.14145
   D11        3.14159   0.00000   0.00000   0.00000   0.00000   3.14159
   D12        0.00000   0.00011   0.00000   0.00012   0.00012   0.00012
   D13        0.00000  -0.00003   0.00000  -0.00003  -0.00003  -0.00003
   D14        3.14159   0.00003   0.00000   0.00003   0.00003  -3.14156
   D15       -3.14159  -0.00014   0.00000  -0.00016  -0.00016   3.14144
   D16        0.00000  -0.00008   0.00000  -0.00009  -0.00009  -0.00009
   D17        0.00000  -0.00076   0.00000  -0.00087  -0.00086  -0.00087
   D18       -3.14159   0.00042   0.00000   0.00048   0.00048  -3.14111
   D19        3.14159  -0.00065   0.00000  -0.00074  -0.00074   3.14085
   D20        0.00000   0.00053   0.00000   0.00060   0.00060   0.00060
   D21        0.00000   0.00003   0.00000   0.00004   0.00004   0.00004
   D22       -3.14159   0.00004   0.00000   0.00004   0.00004  -3.14155
   D23        3.14159  -0.00003   0.00000  -0.00003  -0.00003   3.14156
   D24        0.00000  -0.00002   0.00000  -0.00002  -0.00002  -0.00002
   D25        0.00000  -0.00002   0.00000  -0.00002  -0.00002  -0.00002
   D26       -3.14159  -0.00001   0.00000  -0.00001  -0.00001   3.14158
   D27        3.14159  -0.00003   0.00000  -0.00003  -0.00003   3.14156
   D28        0.00000  -0.00001   0.00000  -0.00002  -0.00002  -0.00002
   D29        0.00000  -0.00169   0.00000  -0.00184  -0.00182  -0.00182
   D30        3.14159   0.00261   0.00000   0.00288   0.00286  -3.13873
   D31        3.14159  -0.00287   0.00000  -0.00318  -0.00316   3.13843
   D32        0.00000   0.00143   0.00000   0.00154   0.00152   0.00152
   D33       -1.67836   0.04802   0.00000   0.04827   0.04809  -1.63027
   D34        2.97566  -0.02998   0.00000  -0.02932  -0.02918   2.94648
   D35        1.46323   0.05232   0.00000   0.05299   0.05285   1.51608
   D36       -0.16594  -0.02567   0.00000  -0.02460  -0.02442  -0.19036
   D37        2.08353  -0.06920   0.00000  -0.06457  -0.06316   2.02037
   D38       -2.51029   0.00410   0.00000  -0.00260  -0.00320  -2.51348
   D39       -0.84738   0.07056   0.00000   0.06474   0.06419  -0.78319
   D40       -0.78471  -0.03207   0.00000  -0.03124  -0.02945  -0.81416
   D41       -1.33139   0.00754   0.00000   0.00646   0.00656  -1.32483
   D42        0.76301   0.02813   0.00000   0.02462   0.02404   0.78704
   D43        2.85740   0.01067   0.00000   0.01102   0.01114   2.86854
   D44        2.01402  -0.00628   0.00000  -0.00961  -0.00993   2.00409
   D45       -2.17477   0.01431   0.00000   0.00855   0.00755  -2.16722
   D46       -0.08037  -0.00316   0.00000  -0.00505  -0.00535  -0.08573
   D47       -1.04720   0.01609   0.00000   0.01378   0.01371  -1.03349
   D48        1.04720   0.01563   0.00000   0.01333   0.01326   1.06046
   D49        3.14159   0.01632   0.00000   0.01400   0.01393  -3.12766
   D50        3.14159  -0.03405   0.00000  -0.03090  -0.03102   3.11057
   D51       -1.04720  -0.03450   0.00000  -0.03135  -0.03147  -1.07867
   D52        1.04720  -0.03382   0.00000  -0.03068  -0.03080   1.01640
   D53        1.04720   0.01945   0.00000   0.01879   0.01897   1.06617
   D54        3.14159   0.01899   0.00000   0.01834   0.01853  -3.12307
   D55       -1.04720   0.01967   0.00000   0.01901   0.01920  -1.02800
   D56        3.14159   0.00564   0.00000   0.00335   0.00281  -3.13879
   D57       -1.04720   0.00269   0.00000   0.00047  -0.00011  -1.04731
   D58        1.04720   0.01272   0.00000   0.01024   0.00974   1.05693
   D59       -1.04720  -0.00265   0.00000  -0.00039  -0.00036  -1.04756
   D60        1.04720  -0.00560   0.00000  -0.00327  -0.00328   1.04392
   D61        3.14159   0.00442   0.00000   0.00650   0.00657  -3.13503
   D62        1.04720  -0.01975   0.00000  -0.02135  -0.02084   1.02636
   D63        3.14159  -0.02271   0.00000  -0.02423  -0.02376   3.11783
   D64       -1.04720  -0.01268   0.00000  -0.01446  -0.01391  -1.06111
   D65        1.04720  -0.04749   0.00000  -0.04484  -0.04496   1.00223
   D66        3.14159  -0.03879   0.00000  -0.03600  -0.03584   3.10575
   D67       -1.04720  -0.03275   0.00000  -0.03079  -0.03051  -1.07771
   D68       -1.04720  -0.01570   0.00000  -0.02031  -0.02044  -1.06764
   D69        1.04720  -0.00700   0.00000  -0.01147  -0.01132   1.03588
   D70        3.14159  -0.00096   0.00000  -0.00625  -0.00599   3.13560
   D71       -3.14159   0.00119   0.00000  -0.00127  -0.00175   3.13985
   D72       -1.04720   0.00989   0.00000   0.00757   0.00738  -1.03982
   D73        1.04720   0.01593   0.00000   0.01279   0.01271   1.05991
   D74       -0.71542   0.00119   0.00000   0.00404   0.00505  -0.71036
   D75       -2.80981  -0.00011   0.00000   0.00049   0.00108  -2.80873
   D76        1.37898   0.00258   0.00000   0.00331   0.00393   1.38291
         Item               Value     Threshold  Converged?
 Maximum Force            0.236566     0.000450     NO 
 RMS     Force            0.032658     0.000300     NO 
 Maximum Displacement     0.221404     0.001800     NO 
 RMS     Displacement     0.056074     0.001200     NO 
 Predicted change in Energy=-1.135397D-01
 GradGradGradGradGradGradGradGradGradGradGradGradGradGradGradGradGradGrad

                          Input orientation:                          
 ---------------------------------------------------------------------
 Center     Atomic      Atomic             Coordinates (Angstroms)
 Number     Number       Type             X           Y           Z
 ---------------------------------------------------------------------
      1          6           0       -4.580546   -3.144950    4.279389
      2          6           0       -3.604984   -3.047234    3.283544
      3          6           0       -2.991765   -1.817090    3.021184
      4          6           0       -3.357008   -0.686024    3.757330
      5          6           0       -4.332352   -0.783924    4.752860
      6          6           0       -4.944287   -2.013331    5.014102
      7          1           0       -5.048854   -4.086143    4.479183
      8          1           0       -3.329021   -3.915034    2.723224
      9          1           0       -2.887997    0.254134    3.556406
     10          1           0       -4.610831    0.082642    5.315375
     11          1           0       -5.691303   -2.088072    5.776666
     12          6           0       -1.922203   -1.696272    1.933369
     13          6           0       -1.508835   -2.921154    1.118861
     14          1           0       -1.967919   -3.854196    1.315173
     15          8           0       -1.384317   -0.590355    1.712383
     16          8           0        0.234666   -2.636239   -1.011842
     17          1           0        0.998857   -3.242677   -0.936686
     18          6           0       -0.559480   -2.801140    0.162257
     19          6           0       -0.319939   -4.375636   -0.119428
     20          6           0        0.516994   -4.940062    1.048061
     21          1           0        1.451439   -4.416476    1.109948
     22          1           0       -0.017320   -4.817198    1.968673
     23          1           0        0.706217   -5.983009    0.884773
     24          6           0       -1.651343   -5.161080   -0.238223
     25          1           0       -1.436672   -6.196015   -0.421349
     26          1           0       -2.225602   -5.087779    0.656650
     27          1           0       -2.225375   -4.769071   -1.054630
     28          6           0        0.442456   -4.578519   -1.451139
     29          1           0        1.377673   -4.033437   -1.386688
     30          1           0        0.628170   -5.624110   -1.611733
     31          1           0       -0.130238   -4.196534   -2.269262
 ---------------------------------------------------------------------
                    Distance matrix (angstroms):
                    1          2          3          4          5
     1  C    0.000000
     2  C    1.397489   0.000000
     3  C    2.422915   1.399330   0.000000
     4  C    2.795694   2.421007   1.398079   0.000000
     5  C    2.420789   2.794731   2.421426   1.397125   0.000000
     6  C    1.397381   2.420231   2.796887   2.420883   1.397910
     7  H    1.070081   2.143278   3.392046   3.865776   3.390121
     8  H    2.140326   1.069202   2.145668   3.390673   3.863929
     9  H    3.865385   3.389329   2.141775   1.069691   2.143648
    10  H    3.389916   3.864736   3.390231   2.142527   1.070005
    11  H    2.143038   3.389450   3.866991   3.390043   2.143765
    12  C    3.830048   2.545550   1.530328   2.531028   3.819781
    13  C    4.412984   3.015890   2.652710   3.920850   5.074046
    14  H    4.014402   2.684336   2.847549   4.234503   5.180232
    15  O    4.830254   3.665538   2.408678   2.842969   4.239443
    16  O    7.172320   5.776000   5.229355   6.280801   7.584227
[...]
 Alpha virt. eigenvalues --    0.96714   0.99663   1.03303   1.04729   1.08096
 Alpha virt. eigenvalues --    1.08905   1.11009   1.11715   1.13395   1.13942
 Alpha virt. eigenvalues --    1.15811   1.17523   1.22361   1.22642   1.23339
 Alpha virt. eigenvalues --    1.25382   1.27010   1.29649   1.32190   1.34754
 Alpha virt. eigenvalues --    1.36296   1.41132   1.46772   1.49898   1.52578
 Alpha virt. eigenvalues --    1.94674   1.99218   2.48548   2.56138   2.57670
 Alpha virt. eigenvalues --    2.58639   2.59103   2.62287   2.62587   2.63260
 Alpha virt. eigenvalues --    2.64298   2.65559   2.65973   2.67540   2.69092
 Alpha virt. eigenvalues --    2.71620   2.72334   2.87251   2.92203   2.93939
 Alpha virt. eigenvalues --    2.96763   2.97676   3.02226   3.04762   3.04973
 Alpha virt. eigenvalues --    3.13283   3.14362   3.15576   3.20663   3.23126
 Alpha virt. eigenvalues --    3.23375   3.25079   3.26881   3.27999   3.28846
 Alpha virt. eigenvalues --    3.29832   3.31926   3.33425   3.34024   3.35403
 Alpha virt. eigenvalues --    3.36753   3.38686   3.42403   3.42811   3.50210
 Alpha virt. eigenvalues --    3.51943   3.52398   3.56435   3.58291   3.62126
 Alpha virt. eigenvalues --    3.63858   3.66956   3.70410   3.72233   3.73103
 Alpha virt. eigenvalues --    3.76136   3.87242   5.38123   5.45181   5.49235
 Alpha virt. eigenvalues --    5.55262   5.59929   5.72425  24.26760  24.41258
 Alpha virt. eigenvalues --   24.50676  24.51125  24.56135  24.62498  24.65388
 Alpha virt. eigenvalues --   24.70794  24.76463  24.78671  24.81006  24.87161
 Alpha virt. eigenvalues --   25.05711  51.59292  51.62931
          Condensed to atoms (all electrons):
              1          2          3          4          5          6
     1  C    5.060520   0.466285  -0.058985  -0.028553  -0.075440   0.499597
     2  C    0.466285   5.075178   0.422669  -0.093234  -0.031625  -0.091129
     3  C   -0.058985   0.422669   5.786263   0.438466  -0.069594  -0.014775
     4  C   -0.028553  -0.093234   0.438466   5.074243   0.450168  -0.080022
     5  C   -0.075440  -0.031625  -0.069594   0.450168   5.088552   0.483010
     6  C    0.499597  -0.091129  -0.014775  -0.080022   0.483010   5.000151
     7  H    0.400251  -0.038996   0.005929  -0.000383   0.005988  -0.039466
     8  H   -0.034327   0.387519  -0.040643   0.005255  -0.000268   0.004953
     9  H   -0.000595   0.005285  -0.041978   0.397876  -0.042220   0.004963
    10  H    0.006088  -0.000289   0.006512  -0.039163   0.401140  -0.042066
    11  H   -0.042678   0.007903  -0.001503   0.007211  -0.042235   0.400583
    12  C    0.005827  -0.029420   0.077428  -0.033464   0.009268   0.001087
    13  C   -0.000929   0.015224  -0.189007   0.011595  -0.000707   0.000132
    14  H    0.000270  -0.000642   0.007389  -0.000368  -0.000009  -0.000025
    15  O   -0.000204   0.004917  -0.146823   0.010753   0.000627   0.000030
    16  O    0.000000   0.000050  -0.000856   0.000009   0.000000   0.000000
    17  H    0.000000  -0.000004   0.000034  -0.000001   0.000000   0.000000
    18  C   -0.000004   0.000704   0.008830  -0.001023   0.000016  -0.000002
    19  C    0.000002   0.000106  -0.001048   0.000010   0.000000   0.000000
    20  C    0.000000  -0.000001   0.000001   0.000000   0.000000   0.000000
    21  H    0.000000   0.000000   0.000001   0.000000   0.000000   0.000000
    22  H    0.000000  -0.000001   0.000003   0.000000   0.000000   0.000000
    23  H    0.000000   0.000000   0.000000   0.000000   0.000000   0.000000
    24  C   -0.000001  -0.000061   0.000084  -0.000001   0.000000   0.000000
    25  H    0.000000  -0.000001   0.000002   0.000000   0.000000   0.000000
    26  H   -0.000001   0.000006  -0.000006  -0.000003   0.000000   0.000000
    27  H   -0.000003   0.000081  -0.000016   0.000002   0.000000   0.000000
    28  C    0.000000   0.000009   0.000007   0.000000   0.000000   0.000000
    29  H    0.000000   0.000000   0.000004   0.000000   0.000000   0.000000
    30  H    0.000000   0.000000   0.000000   0.000000   0.000000   0.000000
    31  H    0.000001  -0.000009   0.000003   0.000000   0.000000   0.000000
              7          8          9         10         11         12
     1  C    0.400251  -0.034327  -0.000595   0.006088  -0.042678   0.005827
     2  C   -0.038996   0.387519   0.005285  -0.000289   0.007903  -0.029420
     3  C    0.005929  -0.040643  -0.041978   0.006512  -0.001503   0.077428
     4  C   -0.000383   0.005255   0.397876  -0.039163   0.007211  -0.033464
     5  C    0.005988  -0.000268  -0.042220   0.401140  -0.042235   0.009268
     6  C   -0.039466   0.004953   0.004963  -0.042066   0.400583   0.001087
     7  H    0.513495  -0.003924   0.000017  -0.000222  -0.004542  -0.000256
     8  H   -0.003924   0.492194  -0.000230   0.000023  -0.000180  -0.003061
     9  H    0.000017  -0.000230   0.458061  -0.003978  -0.000123  -0.001607
    10  H   -0.000222   0.000023  -0.003978   0.510261  -0.004492  -0.000350
    11  H   -0.004542  -0.000180  -0.000123  -0.004492   0.513975  -0.000021
    12  C   -0.000256  -0.003061  -0.001607  -0.000350  -0.000021   4.829509
    13  C    0.000011   0.008335   0.002859  -0.000001   0.000002   0.083814
    14  H   -0.000004   0.000594  -0.000108   0.000002   0.000000  -0.025514
    15  O    0.000001   0.000157   0.014388  -0.000036   0.000001   0.645631
    16  O    0.000000  -0.000046  -0.000004   0.000000   0.000000   0.005827
    17  H    0.000000  -0.000001   0.000000   0.000000   0.000000  -0.000229
    18  C   -0.000001  -0.000095  -0.000124   0.000000   0.000000  -0.029739
    19  C    0.000000   0.000046   0.000000   0.000000   0.000000   0.008296
    20  C    0.000000   0.000018   0.000000   0.000000   0.000000  -0.000034
    21  H    0.000000   0.000000   0.000000   0.000000   0.000000  -0.000028
    22  H    0.000000  -0.000001   0.000000   0.000000   0.000000  -0.000057
    23  H    0.000000   0.000000   0.000000   0.000000   0.000000   0.000009
    24  C    0.000000   0.000118   0.000000   0.000000   0.000000  -0.001870
    25  H    0.000000  -0.000003   0.000000   0.000000   0.000000  -0.000005
    26  H    0.000000  -0.000083   0.000000   0.000000   0.000000  -0.000300
    27  H   -0.000003   0.000655   0.000000   0.000000   0.000000  -0.000012
    28  C    0.000000  -0.000085   0.000000   0.000000   0.000000  -0.000319
    29  H    0.000000  -0.000004   0.000000   0.000000   0.000000  -0.000016
    30  H    0.000000   0.000001   0.000000   0.000000   0.000000   0.000016
    31  H    0.000000   0.000074   0.000000   0.000000   0.000000  -0.000039
             13         14         15         16         17         18
     1  C   -0.000929   0.000270  -0.000204   0.000000   0.000000  -0.000004
     2  C    0.015224  -0.000642   0.004917   0.000050  -0.000004   0.000704
     3  C   -0.189007   0.007389  -0.146823  -0.000856   0.000034   0.008830
     4  C    0.011595  -0.000368   0.010753   0.000009  -0.000001  -0.001023
     5  C   -0.000707  -0.000009   0.000627   0.000000   0.000000   0.000016
     6  C    0.000132  -0.000025   0.000030   0.000000   0.000000  -0.000002
     7  H    0.000011  -0.000004   0.000001   0.000000   0.000000  -0.000001
     8  H    0.008335   0.000594   0.000157  -0.000046  -0.000001  -0.000095
     9  H    0.002859  -0.000108   0.014388  -0.000004   0.000000  -0.000124
    10  H   -0.000001   0.000002  -0.000036   0.000000   0.000000   0.000000
    11  H    0.000002   0.000000   0.000001   0.000000   0.000000   0.000000
    12  C    0.083814  -0.025514   0.645631   0.005827  -0.000229  -0.029739
    13  C    6.054660   0.363102  -0.153202  -0.136998   0.007462   0.363823
    14  H    0.363102   0.453281   0.002442   0.004095  -0.000259  -0.015608
    15  O   -0.153202   0.002442   8.092248  -0.004871   0.000206   0.015484
    16  O   -0.136998   0.004095  -0.004871   8.424987   0.268497   0.239215
    17  H    0.007462  -0.000259   0.000206   0.268497   0.342531  -0.035067
    18  C    0.363823  -0.015608   0.015484   0.239215  -0.035067   5.159608
    19  C   -0.062385  -0.014532  -0.000045  -0.109711   0.000267   0.033811
    20  C   -0.002777   0.000338   0.000021   0.007412   0.000048  -0.143121
    21  H    0.000964   0.000011   0.000007   0.004334   0.004361  -0.006515
    22  H    0.000708   0.000000   0.000007  -0.000414  -0.000099  -0.000517
    23  H   -0.000317  -0.000001  -0.000001   0.000016  -0.000114   0.010444
    24  C   -0.001019   0.005979  -0.000011   0.006950   0.000335  -0.058095
    25  H    0.000274   0.000151   0.000000  -0.000182  -0.000005   0.010018
    26  H   -0.001831   0.000460  -0.000020  -0.000100   0.000005   0.000102
    27  H   -0.001345  -0.000512   0.000001  -0.000152  -0.000003  -0.001543
    28  C   -0.014719   0.000325   0.000002   0.009425  -0.000530  -0.133815
    29  H    0.000072  -0.000019   0.000004   0.006211   0.003545  -0.007731
    30  H   -0.000177   0.000003   0.000000   0.000021  -0.000119   0.010494
    31  H    0.002420  -0.000033  -0.000002  -0.000777  -0.000113  -0.001047
             19         20         21         22         23         24
     1  C    0.000002   0.000000   0.000000   0.000000   0.000000  -0.000001
     2  C    0.000106  -0.000001   0.000000  -0.000001   0.000000  -0.000061
     3  C   -0.001048   0.000001   0.000001   0.000003   0.000000   0.000084
     4  C    0.000010   0.000000   0.000000   0.000000   0.000000  -0.000001
     5  C    0.000000   0.000000   0.000000   0.000000   0.000000   0.000000
     6  C    0.000000   0.000000   0.000000   0.000000   0.000000   0.000000
     7  H    0.000000   0.000000   0.000000   0.000000   0.000000   0.000000
     8  H    0.000046   0.000018   0.000000  -0.000001   0.000000   0.000118
     9  H    0.000000   0.000000   0.000000   0.000000   0.000000   0.000000
    10  H    0.000000   0.000000   0.000000   0.000000   0.000000   0.000000
    11  H    0.000000   0.000000   0.000000   0.000000   0.000000   0.000000
    12  C    0.008296  -0.000034  -0.000028  -0.000057   0.000009  -0.001870
    13  C   -0.062385  -0.002777   0.000964   0.000708  -0.000317  -0.001019
    14  H   -0.014532   0.000338   0.000011   0.000000  -0.000001   0.005979
    15  O   -0.000045   0.000021   0.000007   0.000007  -0.000001  -0.000011
    16  O   -0.109711   0.007412   0.004334  -0.000414   0.000016   0.006950
    17  H    0.000267   0.000048   0.004361  -0.000099  -0.000114   0.000335
    18  C    0.033811  -0.143121  -0.006515  -0.000517   0.010444  -0.058095
    19  C    6.298439   0.228819  -0.043467  -0.038555  -0.043085   0.111385
    20  C    0.228819   5.441574   0.380421   0.381192   0.390766  -0.105056
    21  H   -0.043467   0.380421   0.554762  -0.026208  -0.027670   0.009173
    22  H   -0.038555   0.381192  -0.026208   0.504161  -0.024779  -0.003177
    23  H   -0.043085   0.390766  -0.027670  -0.024779   0.515379  -0.006704
    24  C    0.111385  -0.105056   0.009173  -0.003177  -0.006704   5.455246
    25  H   -0.041936  -0.005720  -0.000215  -0.000091   0.002594   0.383742
    26  H   -0.045289  -0.005238  -0.000158   0.002794  -0.000179   0.391458
    27  H   -0.044455   0.008806  -0.000270  -0.000285  -0.000061   0.389303
    28  C    0.224466  -0.130646  -0.004724   0.008113  -0.002701  -0.097848
    29  H   -0.041065  -0.005013   0.002357  -0.000087  -0.000641   0.009386
    30  H   -0.044050  -0.002729  -0.000684  -0.000089   0.002315  -0.006790
    31  H   -0.038257   0.008565  -0.000063  -0.000315  -0.000115  -0.004181
             25         26         27         28         29         30
     1  C    0.000000  -0.000001  -0.000003   0.000000   0.000000   0.000000
     2  C   -0.000001   0.000006   0.000081   0.000009   0.000000   0.000000
     3  C    0.000002  -0.000006  -0.000016   0.000007   0.000004   0.000000
     4  C    0.000000  -0.000003   0.000002   0.000000   0.000000   0.000000
     5  C    0.000000   0.000000   0.000000   0.000000   0.000000   0.000000
     6  C    0.000000   0.000000   0.000000   0.000000   0.000000   0.000000
     7  H    0.000000   0.000000  -0.000003   0.000000   0.000000   0.000000
     8  H   -0.000003  -0.000083   0.000655  -0.000085  -0.000004   0.000001
     9  H    0.000000   0.000000   0.000000   0.000000   0.000000   0.000000
    10  H    0.000000   0.000000   0.000000   0.000000   0.000000   0.000000
    11  H    0.000000   0.000000   0.000000   0.000000   0.000000   0.000000
    12  C   -0.000005  -0.000300  -0.000012  -0.000319  -0.000016   0.000016
    13  C    0.000274  -0.001831  -0.001345  -0.014719   0.000072  -0.000177
    14  H    0.000151   0.000460  -0.000512   0.000325  -0.000019   0.000003
    15  O    0.000000  -0.000020   0.000001   0.000002   0.000004   0.000000
    16  O   -0.000182  -0.000100  -0.000152   0.009425   0.006211   0.000021
    17  H   -0.000005   0.000005  -0.000003  -0.000530   0.003545  -0.000119
    18  C    0.010018   0.000102  -0.001543  -0.133815  -0.007731   0.010494
    19  C   -0.041936  -0.045289  -0.044455   0.224466  -0.041065  -0.044050
    20  C   -0.005720  -0.005238   0.008806  -0.130646  -0.005013  -0.002729
    21  H   -0.000215  -0.000158  -0.000270  -0.004724   0.002357  -0.000684
    22  H   -0.000091   0.002794  -0.000285   0.008113  -0.000087  -0.000089
    23  H    0.002594  -0.000179  -0.000061  -0.002701  -0.000641   0.002315
    24  C    0.383742   0.391458   0.389303  -0.097848   0.009386  -0.006790
    25  H    0.532873  -0.025970  -0.026835  -0.005391  -0.000227   0.002590
    26  H   -0.025970   0.514839  -0.027877   0.008809  -0.000257  -0.000079
    27  H   -0.026835  -0.027877   0.525133  -0.005370  -0.000118  -0.000236
    28  C   -0.005391   0.008809  -0.005370   5.431813   0.380697   0.391344
    29  H   -0.000227  -0.000257  -0.000118   0.380697   0.550942  -0.027663
    30  H    0.002590  -0.000079  -0.000236   0.391344  -0.027663   0.517683
    31  H   -0.000107  -0.000298   0.002819   0.379875  -0.026557  -0.025429
             31
     1  C    0.000001
     2  C   -0.000009
     3  C    0.000003
     4  C    0.000000
     5  C    0.000000
     6  C    0.000000
     7  H    0.000000
     8  H    0.000074
     9  H    0.000000
    10  H    0.000000
    11  H    0.000000
    12  C   -0.000039
    13  C    0.002420
    14  H   -0.000033
    15  O   -0.000002
    16  O   -0.000777
    17  H   -0.000113
    18  C   -0.001047
    19  C   -0.038257
    20  C    0.008565
    21  H   -0.000063
    22  H   -0.000315
    23  H   -0.000115
    24  C   -0.004181
    25  H   -0.000107
    26  H   -0.000298
    27  H    0.002819
    28  C    0.379875
    29  H   -0.026557
    30  H   -0.025429
    31  H    0.514054
 Mulliken atomic charges:
              1
     1  C   -0.197120
     2  C   -0.100523
     3  C   -0.188390
     4  C   -0.119376
     5  C   -0.176670
     6  C   -0.127021
     7  H    0.162106
     8  H    0.183012
     9  H    0.207518
    10  H    0.166572
    11  H    0.166102
    12  C    0.459632
    13  C   -0.350042
    14  H    0.219192
    15  O   -0.481711
    16  O   -0.722939
    17  H    0.409253
    18  C    0.581497
    19  C   -0.337766
    20  C   -0.447645
    21  H    0.153611
    22  H    0.197696
    23  H    0.184845
    24  C   -0.478344
    25  H    0.174445
    26  H    0.189214
    27  H    0.182296
    28  C   -0.438735
    29  H    0.156181
    30  H    0.183577
    31  H    0.189531
 Sum of Mulliken atomic charges =   0.00000
 Mulliken charges with hydrogens summed into heavy atoms:
              1
     1  C   -0.035014
     2  C    0.082489
     3  C   -0.188390
     4  C    0.088142
     5  C   -0.010098
     6  C    0.039081
    12  C    0.459632
    13  C   -0.130850
    15  O   -0.481711
    16  O   -0.313686
    18  C    0.581497
    19  C   -0.337766
    20  C    0.088507
    24  C    0.067612
    28  C    0.090554
 Sum of Mulliken charges with hydrogens summed into heavy atoms =   0.00000
 Electronic spatial extent (au):  <R**2>=           4375.3921
 Charge=              0.0000 electrons
 Dipole moment (field-independent basis, Debye):
    X=              3.0897    Y=              4.3437    Z=             -0.2912  Tot=              5.3384
 Quadrupole moment (field-independent basis, Debye-Ang):
   XX=            -67.2093   YY=            -97.2154   ZZ=            -94.0556
   XY=             -2.5764   XZ=              2.0803   YZ=              1.4300
 Traceless Quadrupole moment (field-independent basis, Debye-Ang):
   XX=             18.9508   YY=            -11.0553   ZZ=             -7.8955
   XY=             -2.5764   XZ=              2.0803   YZ=              1.4300
 Octapole moment (field-independent basis, Debye-Ang**2):
  XXX=             19.0404  YYY=             17.1109  ZZZ=              2.5197  XYY=              4.6436
  XXY=            -12.1283  XXZ=              5.3137  XZZ=             21.0464  YZZ=             -6.5409
  YYZ=              3.8755  XYZ=            -11.6854
 Hexadecapole moment (field-independent basis, Debye-Ang**3):
 XXXX=          -4353.9101 YYYY=           -888.4318 ZZZZ=           -336.1872 XXXY=            -47.5405
 XXXZ=             53.5114 YYYX=            -36.4341 YYYZ=              4.2686 ZZZX=             11.2016
 ZZZY=             -7.9488 XXYY=           -871.4041 XXZZ=           -904.1778 YYZZ=           -197.7016
 XXYZ=              1.4536 YYXZ=              7.0210 ZZXY=             -2.5193
 N-N= 9.506112401443D+02 E-N=-3.423396329443D+03  KE= 6.516117303351D+02
 1|1|UNPC-DESKTOP-K2VF0AK|FOpt|RHF|6-311G|C13H16O2|MELIH|27-Nov-2024|0|
 |# opt hf/6-311g geom=connectivity||Title Card Required||0,1|C,-5.3195
 185706,-2.3903673904,3.2871550843|C,-4.0827582072,-2.5714814623,2.6850
 18752|C,-2.9761273158,-1.8441695665,3.1113631731|C,-3.1290938539,-0.92
 72605366,4.1492686423|C,-4.3597613256,-0.7516813646,4.756536813|C,-5.4
 583751416,-1.4844856869,4.326442626|H,-6.1657679846,-2.9495777909,2.94
 45343284|H,-3.9925449346,-3.2627189797,1.8737665032|H,-2.2780648997,-0
 .3616547344,4.4617805991|H,-4.4642366423,-0.0482721046,5.5567075236|H,
 -6.411743294,-1.3471752777,4.7944349824|C,-1.628069856,-1.9846310832,2
 .4798072235|C,-1.349998024,-3.2203082259,1.7270392744|H,-1.8666011986,
 -4.089319002,2.0632810653|O,-0.7961996839,-1.1047770561,2.6520882787|O
 ,0.1108482117,-2.2349914927,0.2107441486|H,0.7432944037,-2.3840555165,
 -0.4735116324|C,-0.505025131,-3.3486479705,0.706684456|C,-0.1744605789
 ,-4.6510185855,-0.0179580356|C,1.3462589691,-4.908942935,0.0978861239|
 H,1.9393376581,-4.1310262527,-0.3653021225|H,1.6453407397,-4.979800968
 1,1.134260479|H,1.5967440349,-5.8386987271,-0.3943190746|C,-0.91486076
 96,-5.8546700813,0.5808547321|H,-0.6351672971,-6.7497761296,0.04229028
 64|H,-0.6613073274,-6.001842951,1.6211513005|H,-1.987345232,-5.7445963
 852,0.5005568415|C,-0.5734047424,-4.5182528909,-1.5053009024|H,-0.0427
 162421,-3.7213854,-2.0088922006|H,-0.3480294562,-5.4380146776,-2.02784
 75356|H,-1.6323661079,-4.3223831544,-1.6020900733||Version=IA32W-G09Re
 vA.02|State=1-A|HF=-651.1823651|RMSD=5.083e-009|RMSF=4.217e-006|Dipole
 =-0.3141996,-1.8381246,-0.9663515|Quadrupole=2.9865965,-5.8036025,2.81
 7006,-6.0052051,-8.5932109,4.7203177|PG=C01 [X(C13H16O2)]||@


 KEEP CLOSE TO NATURES HEART, YOURSELF;
 AND BREAK CLEAR AWAY, ONCE IN A WHILE, AND
 CLIMB A MOUNTAIN OR SPEND A WEEK IN THE
 WOODS.  WASH YOUR SPIRIT CLEAN...
                                         -- JOHN MUIR
 Job cpu time:  0 days  0 hours 44 minutes 36.0 seconds.
 File lengths (MBytes):  RWF=     42 Int=      0 D2E=      0 Chk=      5 Scr=      1
 Normal termination of Gaussian 09 at Wed Nov 27 20:01:10 2024.
