 Entering Link 1 = C:\G09W\l1.exe PID=      5360.
  
 Copyright (c) 1988,1990,1992,1993,1995,1998,2003,2009, Gaussian, Inc.
                  All Rights Reserved.
  
 This is part of the Gaussian(R) 09 program.  It is based on
 the Gaussian(R) 03 system (copyright 2003, Gaussian, Inc.),
 the Gaussian(R) 98 system (copyright 1998, Gaussian, Inc.),
 the Gaussian(R) 94 system (copyright 1995, Gaussian, Inc.),
 the Gaussian 92(TM) system (copyright 1992, Gaussian, Inc.),
 the Gaussian 90(TM) system (copyright 1990, Gaussian, Inc.),
 the Gaussian 88(TM) system (copyright 1988, Gaussian, Inc.),
 the Gaussian 86(TM) system (copyright 1986, Carnegie Mellon
 University), and the Gaussian 82(TM) system (copyright 1983,
 Carnegie Mellon University). Gaussian is a federally registered
 trademark of Gaussian, Inc.
  
 This software contains proprietary and confidential information,
 including trade secrets, belonging to Gaussian, Inc.
  
 This software is provided under written license and may be
 used, copied, transmitted, or stored only in accord with that
 written license.
  
 The following legend is applicable only to US Government
 contracts under FAR:
  
                    RESTRICTED RIGHTS LEGEND
  
 Use, reproduction and disclosure by the US Government is
 subject to restrictions as set forth in subparagraphs (a)
 and (c) of the Commercial Computer Software - Restricted
 Rights clause in FAR 52.227-19.
  
 Gaussian, Inc.
 340 Quinnipiac St., Bldg. 40, Wallingford CT 06492
  
  
 ---------------------------------------------------------------
 Warning -- This program may not be used in any manner that
 competes with the business of Gaussian, Inc. or will provide
 assistance to any competitor of Gaussian, Inc.  The licensee
 of this program is prohibited from giving any competitor of
 Gaussian, Inc. access to this program.  By using this program,
 the user acknowledges that Gaussian, Inc. is engaged in the
 business of creating and licensing software in the field of
 computational chemistry and represents and warrants to the
 licensee that it is not a competitor of Gaussian, Inc. and that
 it will not use this program in any manner prohibited above.
 ---------------------------------------------------------------
  

 Cite this work as:
 Gaussian 09, Revision A.02,
 M. J. Frisch, G. W. Trucks, H. B. Schlegel, G. E. Scuseria, 
 M. A. Robb, J. R. Cheeseman, G. Scalmani, V. Barone, B. Mennucci, 
 G. A. Petersson, H. Nakatsuji, M. Caricato, X. Li, H. P. Hratchian, 
 A. F. Izmaylov, J. Bloino, G. Zheng, J. L. Sonnenberg, M. Hada, 
 M. Ehara, K. Toyota, R. Fukuda, J. Hasegawa, M. Ishida, T. Nakajima, 
 Y. Honda, O. Kitao, H. Nakai, T. Vreven, J. A. Montgomery, Jr., 
 J. E. Peralta, F. Ogliaro, M. Bearpark, J. J. Heyd, E. Brothers, 
 K. N. Kudin, V. N. Staroverov, R. Kobayashi, J. Normand, 
 K. Raghavachari, A. Rendell, J. C. Burant, S. S. Iyengar, J. Tomasi, 
 M. Cossi, N. Rega, J. M. Millam, M. Klene, J. E. Knox, J. B. Cross, 
 V. Bakken, C. Adamo, J. Jaramillo, R. Gomperts, R. E. Stratmann, 
 O. Yazyev, A. J. Austin, R. Cammi, C. Pomelli, J. W. Ochterski, 
 R. L. Martin, K. Morokuma, V. G. Zakrzewski, G. A. Voth, 
 P. Salvador, J. J. Dannenberg, S. Dapprich, A. D. Daniels, 
 O. Farkas, J. B. Foresman, J. V. Ortiz, J. Cioslowski, 
 and D. J. Fox, Gaussian, Inc., Wallingford CT, 2009.
 
 ******************************************
 Gaussian 09:  IA32W-G09RevA.02 11-Jun-2009
                25-Nov-2024 
 ******************************************
 %chk=C:\G09W\Midterm1\E2energy.chk
 -----------------------------
 # hf/6-311g geom=connectivity
 -----------------------------
 1/38=1,57=2/1;
 2/12=2,17=6,18=5,40=1/2;
 3/5=4,6=6,11=9,16=1,25=1,30=1/1,2,3;
 4//1;
 5/5=2,38=5/2;
 6/7=2,8=2,9=2,10=2,28=1/1;
 99/5=1,9=1/99;
 -------------------
 Title Card Required
 -------------------
 Symbolic Z-matrix:
 Charge =  0 Multiplicity = 2
 C                     2.47452  -1.53784  -0.30731 
 C                     3.86521  -1.68795  -0.39314 
 C                     4.69466  -0.55862  -0.36947 
 C                     4.13342   0.72081  -0.25997 
 C                     2.74273   0.87091  -0.17415 
 C                     1.91328  -0.25841  -0.19781 
 H                     1.84121  -2.4001   -0.32538 
 H                     4.29373  -2.66482  -0.47674 
 H                     5.75649  -0.67324  -0.435 
 H                     4.76673   1.58307  -0.2419 
 H                     0.85146  -0.1438   -0.13228 
 C                     2.12599   2.27688  -0.05382 
 O                     2.97237   3.42925  -0.02967 
 H                     3.76725   3.25319  -0.53836 
 C                     0.78114   2.42204   0.02918 
 H                     0.14784   1.55978   0.01111 
 C                     0.16439   3.82801   0.14951 
 O                    -1.08439   3.9628    0.22657 
 H                    -1.46886   4.83924   0.30159 
 C                     1.07588   5.06902   0.17552 
 C                     2.35101   4.78659  -0.6405 
 H                     2.08452   4.56092  -1.65191 
 H                     2.98431   5.64885  -0.62243 
 H                     2.87015   3.95376  -0.21413 
 C                     1.45942   5.39382   1.6312 
 H                     2.09272   6.25608   1.64927 
 H                     0.57345   5.59005   2.19817 
 H                     1.97856   4.56099   2.05756 
 C                     0.3287    6.26767  -0.43813 
 H                     0.06222   6.042    -1.44955 
 H                    -0.55726   6.4639    0.12884 
 H                     0.96201   7.12993  -0.42006 
 
                          Input orientation:                          
 ---------------------------------------------------------------------
 Center     Atomic      Atomic             Coordinates (Angstroms)
 Number     Number       Type             X           Y           Z
 ---------------------------------------------------------------------
      1          6           0        2.474520   -1.537840   -0.307312
      2          6           0        3.865212   -1.687948   -0.393137
      3          6           0        4.694664   -0.558625   -0.369469
      4          6           0        4.133424    0.720806   -0.259973
      5          6           0        2.742732    0.870913   -0.174146
      6          6           0        1.913280   -0.258410   -0.197814
      7          1           0        1.841215   -2.400104   -0.325384
      8          1           0        4.293731   -2.664822   -0.476740
      9          1           0        5.756488   -0.673235   -0.434997
     10          1           0        4.766729    1.583069   -0.241902
     11          1           0        0.851457   -0.143800   -0.132281
     12          6           0        2.125986    2.276881   -0.053822
     13          8           0        2.972365    3.429252   -0.029674
     14          1           0        3.767248    3.253190   -0.538362
     15          6           0        0.781141    2.422040    0.029178
     16          1           0        0.147836    1.559776    0.011106
     17          6           0        0.164394    3.828007    0.149505
     18          8           0       -1.084390    3.962798    0.226574
     19          1           0       -1.468856    4.839245    0.301586
     20          6           0        1.075880    5.069022    0.175517
     21          6           0        2.351007    4.786591   -0.640501
     22          1           0        2.084522    4.560920   -1.651915
     23          1           0        2.984312    5.648854   -0.622427
     24          1           0        2.870151    3.953765   -0.214133
     25          6           0        1.459419    5.393819    1.631197
     26          1           0        2.092724    6.256082    1.649271
     27          1           0        0.573454    5.590053    2.198171
     28          1           0        1.978563    4.560992    2.057565
     29          6           0        0.328701    6.267669   -0.438133
     30          1           0        0.062216    6.041999   -1.449547
     31          1           0       -0.557264    6.463904    0.128840
     32          1           0        0.962006    7.129933   -0.420060
 ---------------------------------------------------------------------
                    Distance matrix (angstroms):
                    1          2          3          4          5
     1  C    0.000000
     2  C    1.401400   0.000000
     3  C    2.427296   1.401400   0.000000
     4  C    2.802800   2.427296   1.401400   0.000000
     5  C    2.427296   2.802800   2.427296   1.401400   0.000000
     6  C    1.401400   2.427296   2.802800   2.427296   1.401400
     7  H    1.070000   2.146700   3.396345   3.872800   3.396345
     8  H    2.146700   1.070000   2.146700   3.396345   3.872800
     9  H    3.396345   2.146700   1.070000   2.146700   3.396345
    10  H    3.872800   3.396345   2.146700   1.070000   2.146700
    11  H    2.146700   3.396345   3.872800   3.396345   2.146700
    12  C    3.838989   4.342800   3.838989   2.548270   1.540000
    13  O    4.999694   5.207208   4.357170   2.955804   2.572683
    14  H    4.967746   4.944242   3.926647   2.573821   2.618688
    15  C    4.319885   5.155758   4.935478   3.770359   2.509019
    16  H    3.887168   4.952778   5.030517   4.081944   2.691159
    17  C    5.859837   6.664554   6.327339   5.057230   3.936621
    18  O    6.573271   7.537475   7.361793   6.162209   4.936314
    19  H    7.522512   8.458082   8.220479   6.975846   5.806156
    20  C    6.770520   7.332147   6.712899   5.333405   4.530428
    21  C    6.334407   6.653846   5.842732   4.455606   3.962760
    22  H    6.257391   6.618439   5.887890   4.569681   4.029043
    23  H    7.211641   7.393053   6.443763   5.073213   4.805001
    24  H    5.506626   5.731589   4.869767   3.471308   3.085742
    25  C    7.268848   7.748367   7.064068   5.706477   5.036153
    26  H    8.044825   8.391708   7.568727   6.200722   5.722535
    27  H    7.790915   8.397610   7.834755   6.513480   5.709986
    28  H    6.560059   6.972420   6.283166   4.976087   4.379632
    29  C    8.096150   8.706364   8.103372   6.728696   5.917957
    30  H    8.036036   8.679335   8.135992   6.804771   5.962545
    31  H    8.567955   9.288888   8.783334   7.425423   6.501024
    32  H    8.799472   9.283552   8.546883   7.152652   6.512049
                    6          7          8          9         10
     6  C    0.000000
     7  H    2.146700   0.000000
     8  H    3.396345   2.471400   0.000000
     9  H    3.872800   4.280590   2.471400   0.000000
    10  H    3.396345   4.942800   4.280590   2.471400   0.000000
    11  H    1.070000   2.471400   4.280590   4.942800   4.280590
    12  C    2.548270   4.693509   5.412800   4.693509   2.736837
    13  O    3.840414   5.945446   6.251688   4.974538   2.583249
    14  H    3.985537   5.976177   5.941704   4.402791   1.968795
    15  C    2.918574   4.950004   6.202451   5.877947   4.081944
    16  H    2.542881   4.319885   5.939164   6.053291   4.625876
    17  C    4.458480   6.467350   7.720131   7.202384   5.135605
    18  O    5.194683   7.024979   8.564121   8.290241   6.333891
    19  H    6.137942   7.984850   9.493377   9.117871   7.055535
    20  C    5.405751   7.524924   8.401924   7.433326   5.093964
    21  C    5.083268   7.211641   7.702243   6.438108   4.032015
    22  H    5.036832   7.090468   7.646763   6.508502   4.248525
    23  H    6.018569   8.135148   8.417423   6.905715   4.455605
    24  H    4.319523   6.437603   6.775044   5.457916   3.036112
    25  C    5.958101   8.044825   8.798773   7.716418   5.382250
    26  H    6.773664   8.882121   9.431165   8.110658   5.706478
    27  H    6.460681   8.474559   9.441322   8.545537   6.292331
    28  H    5.321432   7.358952   7.999693   6.919734   4.682888
    29  C    6.719997   8.799472   9.773042   8.811188   6.456011
    30  H    6.684940   8.700441   9.729377   8.862754   6.593398
    31  H    7.169365   9.194001  10.355313   9.545686   7.232212
    32  H    7.452645   9.570975  10.346053   9.158423   6.728696
                   11         12         13         14         15
    11  H    0.000000
    12  C    2.736837   0.000000
    13  O    4.156378   1.430000   0.000000
    14  H    4.495140   1.970203   0.960000   0.000000
    15  C    2.571876   1.355200   2.412344   3.151150   0.000000
    16  H    1.848733   2.105120   3.387413   4.033573   1.070000
    17  C    4.040632   2.509019   2.841797   3.712699   1.540000
    18  O    4.554165   3.636956   4.099707   4.962566   2.427572
    19  H    5.513875   4.428872   4.671429   5.535148   3.313544
    20  C    5.226721   2.991884   2.515473   3.324204   2.667358
    21  C    5.178387   2.587174   1.612937   2.089854   2.916171
    22  H    5.095501   2.787912   2.168087   2.404522   3.016568
    23  H    6.192266   3.525655   2.297419   2.521758   3.961172
    24  H    4.568573   1.841581   0.565320   1.183517   2.601796
    25  C    5.843346   3.605399   2.984464   3.823003   3.443545
    26  H    6.758192   4.328472   3.403468   4.075184   4.364039
    27  H    6.195592   4.296386   3.922643   4.811430   3.844993
    28  H    5.310448   3.113977   2.573916   3.413001   3.181712
    29  C    6.440012   4.393668   3.900309   4.573920   3.900250
    30  H    6.373554   4.514787   4.160703   4.725989   3.975875
    31  H    6.761244   4.976379   4.657523   5.427269   4.258864
    32  H    7.280263   5.004107   4.229537   4.786702   4.732735
                   16         17         18         19         20
    16  H    0.000000
    17  C    2.272510   0.000000
    18  O    2.709118   1.258400   0.000000
    19  H    3.667831   1.926975   0.960000   0.000000
    20  C    3.633607   1.540000   2.427572   2.558197   0.000000
    21  C    3.961173   2.514809   3.637638   3.934673   1.540000
    22  H    3.939957   2.732978   3.732088   4.064495   2.148263
    23  H    5.016724   3.444314   4.485301   4.619520   2.148263
    24  H    3.632205   2.732978   3.979032   4.458365   2.148263
    25  C    4.364038   2.514809   3.239097   3.263466   1.540000
    26  H    5.340549   3.444314   4.168606   4.063069   2.148263
    27  H    4.605164   2.732978   3.046900   2.886482   2.148263
    28  H    4.067782   2.732978   3.618293   3.878863   2.148263
    29  C    4.732736   2.514809   2.784079   2.412217   1.540000
    30  H    4.714993   2.732978   2.906401   2.618638   2.148263
    31  H    4.955955   2.732978   2.557918   1.870924   2.148263
    32  H    5.645832   3.444314   3.825783   3.417179   2.148263
                   21         22         23         24         25
    21  C    0.000000
    22  H    1.070000   0.000000
    23  H    1.070000   1.747303   0.000000
    24  H    1.070000   1.747303   1.747303   0.000000
    25  C    2.514809   3.444314   2.732978   2.732978   0.000000
    26  H    2.732978   3.710993   2.514809   3.062243   1.070000
    27  H    3.444314   4.262112   3.710993   3.710993   1.070000
    28  H    2.732978   3.710993   3.062243   2.514809   1.070000
    29  C    2.514809   2.732978   2.732978   3.444314   2.514809
    30  H    2.732978   2.514809   3.062243   3.710993   3.444314
    31  H    3.444314   3.710993   3.710993   4.262112   2.732978
    32  H    2.732978   3.062243   2.514809   3.710993   2.732978
                   26         27         28         29         30
    26  H    0.000000
    27  H    1.747303   0.000000
    28  H    1.747303   1.747303   0.000000
    29  C    2.732978   2.732978   3.444314   0.000000
    30  H    3.710993   3.710993   4.262112   1.070000   0.000000
    31  H    3.062243   2.514809   3.710993   1.070000   1.747303
    32  H    2.514809   3.062243   3.710993   1.070000   1.747303
                   31         32
    31  H    0.000000
    32  H    1.747303   0.000000
 Stoichiometry    C13H17O2(2)
 Framework group  C1[X(C13H17O2)]
 Deg. of freedom    90
 Full point group                 C1      NOp   1
 Largest Abelian subgroup         C1      NOp   1
 Largest concise Abelian subgroup C1      NOp   1
                         Standard orientation:                         
 ---------------------------------------------------------------------
 Center     Atomic      Atomic             Coordinates (Angstroms)
 Number     Number       Type             X           Y           Z
 ---------------------------------------------------------------------
      1          6           0       -3.895946    1.293810   -0.004948
      2          6           0       -4.639248    0.105807    0.003731
      3          6           0       -3.982030   -1.131896    0.012641
      4          6           0       -2.581512   -1.181596    0.012874
      5          6           0       -1.838211    0.006407    0.004196
      6          6           0       -2.495428    1.244109   -0.004713
      7          1           0       -4.397746    2.238823   -0.011751
      8          1           0       -5.708574    0.143754    0.003553
      9          1           0       -4.549557   -2.038962    0.019268
     10          1           0       -2.079712   -2.126609    0.019676
     11          1           0       -1.927901    2.151176   -0.011336
     12          6           0       -0.299180   -0.048209    0.004450
     13          8           0        0.371450   -1.311171    0.013539
     14          1           0       -0.170815   -1.964658   -0.434237
     15          6           0        0.419617    1.100629   -0.003939
     16          1           0       -0.082183    2.045642   -0.010741
     17          6           0        1.958648    1.046013   -0.003681
     18          8           0        2.626102    2.112791   -0.011472
     19          1           0        3.585499    2.078745   -0.011309
     20          6           0        2.680865   -0.314100    0.006113
     21          6           0        1.810983   -1.362404   -0.712193
     22          1           0        1.643626   -1.054711   -1.723240
     23          1           0        2.312783   -2.307417   -0.705388
     24          1           0        0.872141   -1.453450   -0.207033
     25          6           0        2.921734   -0.756947    1.461265
     26          1           0        3.423534   -1.701961    1.468070
     27          1           0        3.526133   -0.028580    1.960348
     28          1           0        1.982892   -0.847993    1.966426
     29          6           0        4.032095   -0.183061   -0.720940
     30          1           0        3.864738    0.124632   -1.731987
     31          1           0        4.636494    0.545306   -0.221857
     32          1           0        4.533895   -1.128075   -0.714135
 ---------------------------------------------------------------------
 Rotational constants (GHZ):      1.5406382      0.3054752      0.2699662
 Standard basis: 6-311G (5D, 7F)
 There are   246 symmetry adapted basis functions of A   symmetry.
 Integral buffers will be    262144 words long.
 Raffenetti 2 integral format.
 Two-electron integral symmetry is turned on.
   246 basis functions,   475 primitive gaussians,   246 cartesian basis functions
    56 alpha electrons       55 beta electrons
       nuclear repulsion energy      1002.3390842263 Hartrees.
 NAtoms=   32 NActive=   32 NUniq=   32 SFac= 7.50D-01 NAtFMM=   80 NAOKFM=F Big=F
 One-electron integrals computed using PRISM.
 NBasis=   246 RedAO= T  NBF=   246
 NBsUse=   246 1.00D-06 NBFU=   246
 Harris functional with IExCor=  205 diagonalized for initial guess.
 ExpMin= 1.03D-01 ExpMax= 8.59D+03 ExpMxC= 1.30D+03 IAcc=1 IRadAn=         1 AccDes= 0.00D+00
 HarFok:  IExCor=  205 AccDes= 0.00D+00 IRadAn=         1 IDoV= 1
 ScaDFX=  1.000000  1.000000  1.000000  1.000000
 FoFCou: FMM=F IPFlag=           0 FMFlag=      100000 FMFlg1=           0
         NFxFlg=           0 DoJE=T BraDBF=F KetDBF=T FulRan=T
         Omega=  0.000000  0.000000  1.000000  0.000000  0.000000 ICntrl=     500 IOpCl=  0
         NMat0=    1 NMatS0=    1 NMatT0=    0 NMatD0=    1 NMtDS0=    0 NMtDT0=    0
         I1Cent=           4 NGrid=           0.
 Petite list used in FoFCou.
 Initial guess orbital symmetries:
 Alpha Orbitals:
       Occupied  (A) (A) (A) (A) (A) (A) (A) (A) (A) (A) (A) (A)
                 (A) (A) (A) (A) (A) (A) (A) (A) (A) (A) (A) (A)
                 (A) (A) (A) (A) (A) (A) (A) (A) (A) (A) (A) (A)
                 (A) (A) (A) (A) (A) (A) (A) (A) (A) (A) (A) (A)
                 (A) (A) (A) (A) (A) (A) (A) (A)
       Virtual   (A) (A) (A) (A) (A) (A) (A) (A) (A) (A) (A) (A)
                 (A) (A) (A) (A) (A) (A) (A) (A) (A) (A) (A) (A)
                 (A) (A) (A) (A) (A) (A) (A) (A) (A) (A) (A) (A)
                 (A) (A) (A) (A) (A) (A) (A) (A) (A) (A) (A) (A)
                 (A) (A) (A) (A) (A) (A) (A) (A) (A) (A) (A) (A)
                 (A) (A) (A) (A) (A) (A) (A) (A) (A) (A) (A) (A)
                 (A) (A) (A) (A) (A) (A) (A) (A) (A) (A) (A) (A)
                 (A) (A) (A) (A) (A) (A) (A) (A) (A) (A) (A) (A)
                 (A) (A) (A) (A) (A) (A) (A) (A) (A) (A) (A) (A)
                 (A) (A) (A) (A) (A) (A) (A) (A) (A) (A) (A) (A)
                 (A) (A) (A) (A) (A) (A) (A) (A) (A) (A) (A) (A)
                 (A) (A) (A) (A) (A) (A) (A) (A) (A) (A) (A) (A)
                 (A) (A) (A) (A) (A) (A) (A) (A) (A) (A) (A) (A)
                 (A) (A) (A) (A) (A) (A) (A) (A) (A) (A) (A) (A)
                 (A) (A) (A) (A) (A) (A) (A) (A) (A) (A) (A) (A)
                 (A) (A) (A) (A) (A) (A) (A) (A) (A) (A)
 Beta  Orbitals:
       Occupied  (A) (A) (A) (A) (A) (A) (A) (A) (A) (A) (A) (A)
                 (A) (A) (A) (A) (A) (A) (A) (A) (A) (A) (A) (A)
                 (A) (A) (A) (A) (A) (A) (A) (A) (A) (A) (A) (A)
                 (A) (A) (A) (A) (A) (A) (A) (A) (A) (A) (A) (A)
                 (A) (A) (A) (A) (A) (A) (A)
       Virtual   (A) (A) (A) (A) (A) (A) (A) (A) (A) (A) (A) (A)
                 (A) (A) (A) (A) (A) (A) (A) (A) (A) (A) (A) (A)
                 (A) (A) (A) (A) (A) (A) (A) (A) (A) (A) (A) (A)
                 (A) (A) (A) (A) (A) (A) (A) (A) (A) (A) (A) (A)
                 (A) (A) (A) (A) (A) (A) (A) (A) (A) (A) (A) (A)
                 (A) (A) (A) (A) (A) (A) (A) (A) (A) (A) (A) (A)
                 (A) (A) (A) (A) (A) (A) (A) (A) (A) (A) (A) (A)
                 (A) (A) (A) (A) (A) (A) (A) (A) (A) (A) (A) (A)
                 (A) (A) (A) (A) (A) (A) (A) (A) (A) (A) (A) (A)
                 (A) (A) (A) (A) (A) (A) (A) (A) (A) (A) (A) (A)
                 (A) (A) (A) (A) (A) (A) (A) (A) (A) (A) (A) (A)
                 (A) (A) (A) (A) (A) (A) (A) (A) (A) (A) (A) (A)
                 (A) (A) (A) (A) (A) (A) (A) (A) (A) (A) (A) (A)
                 (A) (A) (A) (A) (A) (A) (A) (A) (A) (A) (A) (A)
                 (A) (A) (A) (A) (A) (A) (A) (A) (A) (A) (A) (A)
                 (A) (A) (A) (A) (A) (A) (A) (A) (A) (A) (A)
 The electronic state of the initial guess is 2-A.
 Initial guess <Sx>= 0.0000 <Sy>= 0.0000 <Sz>= 0.5000 <S**2>= 0.7500 S= 0.5000
 Requested convergence on RMS density matrix=1.00D-08 within 128 cycles.
 Requested convergence on MAX density matrix=1.00D-06.
 Requested convergence on             energy=1.00D-06.
 No special actions if energy rises.
 Integral accuracy reduced to 1.0D-05 until final iterations.
 Rare condition: small coef for last iteration:  0.000D+00
 Initial convergence to 2.8D-05 achieved.  Increase integral accuracy.
 SCF Done:  E(UHF) =  -650.744992352     A.U. after   36 cycles
             Convg  =    0.8675D-08             -V/T =  1.9932
 <Sx>= 0.0000 <Sy>= 0.0000 <Sz>= 0.5000 <S**2>= 1.6656 S= 0.8841
 <L.S>= 0.000000000000E+00
 Annihilation of the first spin contaminant:
 S**2 before annihilation     1.6656,   after     1.7778

 **********************************************************************

            Population analysis using the SCF density.

 **********************************************************************

 Orbital symmetries:
 Alpha Orbitals:
       Occupied  (A) (A) (A) (A) (A) (A) (A) (A) (A) (A) (A) (A)
                 (A) (A) (A) (A) (A) (A) (A) (A) (A) (A) (A) (A)
                 (A) (A) (A) (A) (A) (A) (A) (A) (A) (A) (A) (A)
                 (A) (A) (A) (A) (A) (A) (A) (A) (A) (A) (A) (A)
                 (A) (A) (A) (A) (A) (A) (A) (A)
       Virtual   (A) (A) (A) (A) (A) (A) (A) (A) (A) (A) (A) (A)
                 (A) (A) (A) (A) (A) (A) (A) (A) (A) (A) (A) (A)
                 (A) (A) (A) (A) (A) (A) (A) (A) (A) (A) (A) (A)
                 (A) (A) (A) (A) (A) (A) (A) (A) (A) (A) (A) (A)
                 (A) (A) (A) (A) (A) (A) (A) (A) (A) (A) (A) (A)
                 (A) (A) (A) (A) (A) (A) (A) (A) (A) (A) (A) (A)
                 (A) (A) (A) (A) (A) (A) (A) (A) (A) (A) (A) (A)
                 (A) (A) (A) (A) (A) (A) (A) (A) (A) (A) (A) (A)
                 (A) (A) (A) (A) (A) (A) (A) (A) (A) (A) (A) (A)
                 (A) (A) (A) (A) (A) (A) (A) (A) (A) (A) (A) (A)
                 (A) (A) (A) (A) (A) (A) (A) (A) (A) (A) (A) (A)
                 (A) (A) (A) (A) (A) (A) (A) (A) (A) (A) (A) (A)
                 (A) (A) (A) (A) (A) (A) (A) (A) (A) (A) (A) (A)
                 (A) (A) (A) (A) (A) (A) (A) (A) (A) (A) (A) (A)
                 (A) (A) (A) (A) (A) (A) (A) (A) (A) (A) (A) (A)
                 (A) (A) (A) (A) (A) (A) (A) (A) (A) (A)
 Beta  Orbitals:
       Occupied  (A) (A) (A) (A) (A) (A) (A) (A) (A) (A) (A) (A)
                 (A) (A) (A) (A) (A) (A) (A) (A) (A) (A) (A) (A)
                 (A) (A) (A) (A) (A) (A) (A) (A) (A) (A) (A) (A)
                 (A) (A) (A) (A) (A) (A) (A) (A) (A) (A) (A) (A)
                 (A) (A) (A) (A) (A) (A) (A)
       Virtual   (A) (A) (A) (A) (A) (A) (A) (A) (A) (A) (A) (A)
                 (A) (A) (A) (A) (A) (A) (A) (A) (A) (A) (A) (A)
                 (A) (A) (A) (A) (A) (A) (A) (A) (A) (A) (A) (A)
                 (A) (A) (A) (A) (A) (A) (A) (A) (A) (A) (A) (A)
                 (A) (A) (A) (A) (A) (A) (A) (A) (A) (A) (A) (A)
                 (A) (A) (A) (A) (A) (A) (A) (A) (A) (A) (A) (A)
                 (A) (A) (A) (A) (A) (A) (A) (A) (A) (A) (A) (A)
                 (A) (A) (A) (A) (A) (A) (A) (A) (A) (A) (A) (A)
                 (A) (A) (A) (A) (A) (A) (A) (A) (A) (A) (A) (A)
                 (A) (A) (A) (A) (A) (A) (A) (A) (A) (A) (A) (A)
                 (A) (A) (A) (A) (A) (A) (A) (A) (A) (A) (A) (A)
                 (A) (A) (A) (A) (A) (A) (A) (A) (A) (A) (A) (A)
                 (A) (A) (A) (A) (A) (A) (A) (A) (A) (A) (A) (A)
                 (A) (A) (A) (A) (A) (A) (A) (A) (A) (A) (A) (A)
                 (A) (A) (A) (A) (A) (A) (A) (A) (A) (A) (A) (A)
                 (A) (A) (A) (A) (A) (A) (A) (A) (A) (A) (A)
 The electronic state is 2-A.
 Alpha  occ. eigenvalues --  -20.66447 -20.58582 -11.35516 -11.30351 -11.28160
 Alpha  occ. eigenvalues --  -11.26814 -11.26763 -11.26053 -11.25412 -11.24989
 Alpha  occ. eigenvalues --  -11.24972 -11.23212 -11.19712 -11.19570 -11.10234
 Alpha  occ. eigenvalues --   -1.74552  -1.46209  -1.19639  -1.14992  -1.09958
 Alpha  occ. eigenvalues --   -1.04900  -1.03841  -1.01809  -0.93647  -0.93032
 Alpha  occ. eigenvalues --   -0.87486  -0.85461  -0.84330  -0.82747  -0.77600
 Alpha  occ. eigenvalues --   -0.74952  -0.74412  -0.70543  -0.65730  -0.65083
 Alpha  occ. eigenvalues --   -0.64437  -0.64091  -0.63211  -0.61038  -0.60516
 Alpha  occ. eigenvalues --   -0.57509  -0.56431  -0.55269  -0.54387  -0.53181
 Alpha  occ. eigenvalues --   -0.52453  -0.51441  -0.49623  -0.46458  -0.46218
 Alpha  occ. eigenvalues --   -0.43252  -0.43078  -0.39020  -0.37066  -0.27308
 Alpha  occ. eigenvalues --   -0.17707
 Alpha virt. eigenvalues --    0.12264   0.13513   0.13715   0.15243   0.15865
 Alpha virt. eigenvalues --    0.17007   0.19247   0.19924   0.20781   0.21058
 Alpha virt. eigenvalues --    0.22327   0.22719   0.24066   0.25289   0.26143
 Alpha virt. eigenvalues --    0.26993   0.28460   0.29289   0.29554   0.31525
 Alpha virt. eigenvalues --    0.33438   0.34090   0.35987   0.36491   0.38441
 Alpha virt. eigenvalues --    0.39030   0.39704   0.42557   0.43447   0.45682
 Alpha virt. eigenvalues --    0.46465   0.46707   0.48205   0.49685   0.51253
 Alpha virt. eigenvalues --    0.52086   0.53550   0.53990   0.55115   0.55946
 Alpha virt. eigenvalues --    0.56789   0.57457   0.58609   0.59041   0.60596
 Alpha virt. eigenvalues --    0.60775   0.61983   0.62455   0.62763   0.63417
 Alpha virt. eigenvalues --    0.64737   0.64808   0.66468   0.68467   0.69473
 Alpha virt. eigenvalues --    0.70362   0.72286   0.73666   0.75583   0.76787
 Alpha virt. eigenvalues --    0.78013   0.79083   0.80399   0.80579   0.81179
 Alpha virt. eigenvalues --    0.81818   0.82137   0.82927   0.83353   0.84357
 Alpha virt. eigenvalues --    0.84960   0.85183   0.85380   0.86920   0.87476
 Alpha virt. eigenvalues --    0.87840   0.89632   0.89945   0.91416   0.91766
 Alpha virt. eigenvalues --    0.92708   0.94035   0.94390   0.94881   0.96721
 Alpha virt. eigenvalues --    0.98874   1.00353   1.03458   1.05111   1.06913
 Alpha virt. eigenvalues --    1.08298   1.10470   1.11290   1.11723   1.14852
 Alpha virt. eigenvalues --    1.15117   1.16013   1.21050   1.23863   1.24108
 Alpha virt. eigenvalues --    1.28113   1.29752   1.30506   1.33265   1.37355
 Alpha virt. eigenvalues --    1.38217   1.45237   1.48876   1.51225   1.56593
 Alpha virt. eigenvalues --    1.68798   1.95049   2.01560   2.47938   2.48502
 Alpha virt. eigenvalues --    2.52321   2.56578   2.62637   2.62970   2.64765
 Alpha virt. eigenvalues --    2.65749   2.67365   2.68441   2.69589   2.71302
 Alpha virt. eigenvalues --    2.74799   2.76090   2.79992   2.88609   2.89234
 Alpha virt. eigenvalues --    2.92125   2.94052   2.96200   3.00095   3.02079
 Alpha virt. eigenvalues --    3.08380   3.10059   3.13324   3.14721   3.18286
 Alpha virt. eigenvalues --    3.22583   3.24957   3.26767   3.28506   3.28774
 Alpha virt. eigenvalues --    3.29860   3.31297   3.34457   3.36294   3.36901
 Alpha virt. eigenvalues --    3.39794   3.40814   3.43748   3.46562   3.47960
 Alpha virt. eigenvalues --    3.50238   3.52185   3.52359   3.56435   3.59893
 Alpha virt. eigenvalues --    3.61274   3.63772   3.65200   3.65924   3.69496
 Alpha virt. eigenvalues --    3.73750   3.75791   3.79280   3.92560   5.38113
 Alpha virt. eigenvalues --    5.44694   5.49895   5.63344   5.68494   5.72119
 Alpha virt. eigenvalues --   24.25284  24.41485  24.49534  24.51828  24.56730
 Alpha virt. eigenvalues --   24.66546  24.72943  24.75485  24.78536  24.79447
 Alpha virt. eigenvalues --   24.84406  24.90731  25.01365  51.59349  51.64100
  Beta  occ. eigenvalues --  -20.66336 -20.57870 -11.33407 -11.29815 -11.28227
  Beta  occ. eigenvalues --  -11.27061 -11.26427 -11.26418 -11.25321 -11.25236
  Beta  occ. eigenvalues --  -11.24582 -11.23492 -11.19641 -11.19403 -11.09990
  Beta  occ. eigenvalues --   -1.74102  -1.43932  -1.18994  -1.13604  -1.09404
  Beta  occ. eigenvalues --   -1.04503  -1.03603  -1.02682  -0.93052  -0.89725
  Beta  occ. eigenvalues --   -0.87941  -0.84895  -0.84448  -0.82619  -0.76838
  Beta  occ. eigenvalues --   -0.74660  -0.72773  -0.69184  -0.65767  -0.64707
  Beta  occ. eigenvalues --   -0.64073  -0.63031  -0.61015  -0.60125  -0.58317
  Beta  occ. eigenvalues --   -0.56477  -0.55889  -0.54382  -0.53599  -0.52429
  Beta  occ. eigenvalues --   -0.52010  -0.51349  -0.49267  -0.46096  -0.44084
  Beta  occ. eigenvalues --   -0.42684  -0.42542  -0.37972  -0.36465  -0.16443
  Beta virt. eigenvalues --    0.10161   0.12448   0.13839   0.15269   0.15971
  Beta virt. eigenvalues --    0.17025   0.17733   0.19187   0.19967   0.20959
  Beta virt. eigenvalues --    0.21770   0.22796   0.24081   0.25197   0.26050
  Beta virt. eigenvalues --    0.26339   0.27867   0.28801   0.29610   0.30128
  Beta virt. eigenvalues --    0.33010   0.33780   0.34315   0.36828   0.37109
  Beta virt. eigenvalues --    0.38519   0.39156   0.40151   0.42535   0.43802
  Beta virt. eigenvalues --    0.46302   0.46946   0.47152   0.48925   0.50301
  Beta virt. eigenvalues --    0.51589   0.52287   0.53794   0.54787   0.55624
  Beta virt. eigenvalues --    0.56446   0.57612   0.58133   0.59104   0.59148
  Beta virt. eigenvalues --    0.60646   0.61505   0.61850   0.62331   0.63476
  Beta virt. eigenvalues --    0.64119   0.64805   0.64841   0.66802   0.68369
  Beta virt. eigenvalues --    0.68835   0.72515   0.73540   0.74419   0.75866
  Beta virt. eigenvalues --    0.76904   0.78643   0.79753   0.80872   0.81095
  Beta virt. eigenvalues --    0.81716   0.81932   0.82570   0.83056   0.83408
  Beta virt. eigenvalues --    0.84953   0.85042   0.85165   0.85603   0.87419
  Beta virt. eigenvalues --    0.87631   0.88098   0.89858   0.90253   0.91573
  Beta virt. eigenvalues --    0.92008   0.93032   0.94236   0.94389   0.95156
  Beta virt. eigenvalues --    0.96805   0.99408   1.00558   1.03570   1.05610
  Beta virt. eigenvalues --    1.07323   1.08815   1.10519   1.12038   1.13033
  Beta virt. eigenvalues --    1.15142   1.15422   1.16520   1.21484   1.24018
  Beta virt. eigenvalues --    1.24246   1.28330   1.30213   1.30838   1.33387
  Beta virt. eigenvalues --    1.37546   1.38683   1.45829   1.49090   1.51211
  Beta virt. eigenvalues --    1.56903   1.69111   1.95695   2.02051   2.47945
  Beta virt. eigenvalues --    2.48430   2.52287   2.56574   2.62691   2.63021
  Beta virt. eigenvalues --    2.64787   2.65786   2.67360   2.68453   2.69499
  Beta virt. eigenvalues --    2.71294   2.74812   2.76122   2.80020   2.89170
  Beta virt. eigenvalues --    2.89470   2.92279   2.94091   2.97000   3.02182
  Beta virt. eigenvalues --    3.05241   3.08261   3.10475   3.13301   3.15222
  Beta virt. eigenvalues --    3.18985   3.22938   3.25217   3.26647   3.28728
  Beta virt. eigenvalues --    3.29016   3.30205   3.31618   3.34682   3.36587
  Beta virt. eigenvalues --    3.37368   3.40072   3.41069   3.43755   3.46635
  Beta virt. eigenvalues --    3.48012   3.50292   3.52483   3.52658   3.56645
  Beta virt. eigenvalues --    3.59919   3.61259   3.63881   3.65084   3.65987
  Beta virt. eigenvalues --    3.69412   3.73807   3.75959   3.79493   3.92630
  Beta virt. eigenvalues --    5.40554   5.45305   5.50263   5.63563   5.68547
  Beta virt. eigenvalues --    5.72384  24.25345  24.41644  24.49507  24.51942
  Beta virt. eigenvalues --   24.57432  24.67138  24.73008  24.75496  24.78623
  Beta virt. eigenvalues --   24.79333  24.84632  24.90860  25.01365  51.59755
  Beta virt. eigenvalues --   51.64169
          Condensed to atoms (all electrons):
              1          2          3          4          5          6
     1  C    5.164485   0.431997  -0.060791  -0.030572  -0.035765   0.374444
     2  C    0.431997   5.107965   0.442777  -0.090565  -0.010080  -0.084661
     3  C   -0.060791   0.442777   5.120042   0.409484  -0.039913  -0.034030
     4  C   -0.030572  -0.090565   0.409484   5.337786   0.346982  -0.074952
     5  C   -0.035765  -0.010080  -0.039913   0.346982   5.407709   0.330265
     6  C    0.374444  -0.084661  -0.034030  -0.074952   0.330265   5.258771
     7  H    0.396705  -0.038756   0.005621  -0.000230   0.006334  -0.035775
     8  H   -0.043864   0.399624  -0.042890   0.008680  -0.001899   0.008643
     9  H    0.005797  -0.037756   0.397512  -0.037095   0.005535  -0.000434
    10  H   -0.000817   0.004854  -0.022357   0.379078  -0.056563   0.006449
    11  H   -0.030146   0.005059  -0.000575   0.003649  -0.057897   0.398419
    12  C    0.010651   0.000937   0.010108  -0.068476   0.214991  -0.027693
    13  O   -0.000055  -0.000013   0.000556   0.011509  -0.091064   0.002737
    14  H   -0.000711   0.000210  -0.003777  -0.053551   0.030962   0.010335
    15  C    0.001092  -0.000074  -0.000437   0.013569  -0.005749  -0.022224
    16  H    0.000556   0.000002  -0.000002   0.000316  -0.008661   0.000926
    17  C   -0.000065   0.000000   0.000009   0.000115   0.011110  -0.000752
    18  O    0.000000   0.000000   0.000000   0.000001  -0.000165  -0.000005
    19  H    0.000000   0.000000   0.000000   0.000000   0.000016  -0.000003
    20  C    0.000001   0.000000   0.000000   0.000069   0.000457  -0.000025
    21  C   -0.000032   0.000007  -0.000165  -0.012641   0.016046   0.002325
    22  H    0.000003  -0.000001   0.000014   0.000598   0.000059  -0.000230
    23  H    0.000000   0.000000   0.000002   0.000282  -0.000271  -0.000021
    24  H   -0.000019   0.000002   0.000047  -0.007235   0.010801   0.000615
    25  C    0.000000   0.000000   0.000000   0.000056  -0.000261  -0.000038
    26  H    0.000000   0.000000   0.000000   0.000000   0.000017   0.000000
    27  H    0.000000   0.000000   0.000000  -0.000003   0.000007   0.000003
    28  H   -0.000002   0.000000  -0.000003  -0.000178   0.000029   0.000078
    29  C    0.000000   0.000000   0.000000  -0.000006   0.000016   0.000003
    30  H    0.000000   0.000000   0.000000   0.000002  -0.000003  -0.000002
    31  H    0.000000   0.000000   0.000000   0.000001  -0.000007   0.000000
    32  H    0.000000   0.000000   0.000000   0.000001  -0.000003   0.000000
              7          8          9         10         11         12
     1  C    0.396705  -0.043864   0.005797  -0.000817  -0.030146   0.010651
     2  C   -0.038756   0.399624  -0.037756   0.004854   0.005059   0.000937
     3  C    0.005621  -0.042890   0.397512  -0.022357  -0.000575   0.010108
     4  C   -0.000230   0.008680  -0.037095   0.379078   0.003649  -0.068476
     5  C    0.006334  -0.001899   0.005535  -0.056563  -0.057897   0.214991
     6  C   -0.035775   0.008643  -0.000434   0.006449   0.398419  -0.027693
     7  H    0.504688  -0.004103  -0.000191   0.000013  -0.003504  -0.000394
     8  H   -0.004103   0.511633  -0.004099  -0.000126  -0.000116  -0.000052
     9  H   -0.000191  -0.004099   0.505680  -0.003561   0.000009  -0.000294
    10  H    0.000013  -0.000126  -0.003561   0.502816  -0.000131  -0.005270
    11  H   -0.003504  -0.000116   0.000009  -0.000131   0.495403  -0.001859
    12  C   -0.000394  -0.000052  -0.000294  -0.005270  -0.001859   5.354988
    13  O    0.000001   0.000000   0.000006  -0.009321  -0.000260   0.005375
    14  H   -0.000001   0.000012  -0.000069   0.025561   0.000526  -0.056893
    15  C    0.000096  -0.000002   0.000010  -0.000086  -0.001529   0.244458
    16  H    0.000012  -0.000001   0.000001   0.000043   0.001200  -0.041009
    17  C    0.000001   0.000000   0.000000  -0.000132   0.000131  -0.062188
    18  O    0.000000   0.000000   0.000000   0.000000  -0.000149   0.001562
    19  H    0.000000   0.000000   0.000000   0.000000  -0.000002  -0.000369
    20  C    0.000000   0.000000   0.000000   0.000017  -0.000038  -0.002778
    21  C    0.000000   0.000000  -0.000003   0.005692   0.000313  -0.041096
    22  H    0.000000   0.000000   0.000000  -0.000228  -0.000030   0.000396
    23  H    0.000000   0.000000   0.000000  -0.000226  -0.000003   0.003395
    24  H   -0.000001   0.000000  -0.000004   0.002431   0.000143   0.023360
    25  C    0.000000   0.000000   0.000000  -0.000047  -0.000015  -0.001940
    26  H    0.000000   0.000000   0.000000   0.000000   0.000000   0.000465
    27  H    0.000000   0.000000   0.000000   0.000001   0.000001  -0.000137
    28  H    0.000000   0.000000   0.000000   0.000109   0.000013  -0.001418
    29  C    0.000000   0.000000   0.000000   0.000008   0.000004   0.000887
    30  H    0.000000   0.000000   0.000000  -0.000001  -0.000001   0.000102
    31  H    0.000000   0.000000   0.000000  -0.000001  -0.000001  -0.000470
    32  H    0.000000   0.000000   0.000000  -0.000001   0.000000   0.000018
             13         14         15         16         17         18
     1  C   -0.000055  -0.000711   0.001092   0.000556  -0.000065   0.000000
     2  C   -0.000013   0.000210  -0.000074   0.000002   0.000000   0.000000
     3  C    0.000556  -0.003777  -0.000437  -0.000002   0.000009   0.000000
     4  C    0.011509  -0.053551   0.013569   0.000316   0.000115   0.000001
     5  C   -0.091064   0.030962  -0.005749  -0.008661   0.011110  -0.000165
     6  C    0.002737   0.010335  -0.022224   0.000926  -0.000752  -0.000005
     7  H    0.000001  -0.000001   0.000096   0.000012   0.000001   0.000000
     8  H    0.000000   0.000012  -0.000002  -0.000001   0.000000   0.000000
     9  H    0.000006  -0.000069   0.000010   0.000001   0.000000   0.000000
    10  H   -0.009321   0.025561  -0.000086   0.000043  -0.000132   0.000000
    11  H   -0.000260   0.000526  -0.001529   0.001200   0.000131  -0.000149
    12  C    0.005375  -0.056893   0.244458  -0.041009  -0.062188   0.001562
    13  O   11.241694  -0.321462  -0.046312   0.003166   0.052397   0.000042
    14  H   -0.321462   0.652966  -0.006225   0.000851  -0.013853   0.000055
    15  C   -0.046312  -0.006225   5.440838   0.371530   0.297754  -0.049364
    16  H    0.003166   0.000851   0.371530   0.484772  -0.031975   0.006312
    17  C    0.052397  -0.013853   0.297754  -0.031975   5.573435   0.082014
    18  O    0.000042   0.000055  -0.049364   0.006312   0.082014   8.468218
    19  H    0.000142  -0.000047   0.004166  -0.000409  -0.037690   0.280283
    20  C   -0.012553   0.005388  -0.099078   0.005650   0.087336  -0.089418
    21  C   -1.935543   0.446577   0.023944   0.001710  -0.166742   0.006531
    22  H    0.044164  -0.024279  -0.005763  -0.000451   0.011626  -0.000313
    23  H    0.046249  -0.025961  -0.001443  -0.000047   0.012596  -0.000253
    24  H   -0.652081   0.121028  -0.019871   0.000927  -0.007666   0.000087
    25  C    0.023092  -0.006277   0.001198  -0.000400  -0.125137   0.005770
    26  H   -0.000158   0.000016  -0.000783   0.000011   0.011685  -0.000343
    27  H   -0.000754   0.000262   0.001245   0.000030  -0.012721   0.004582
    28  H   -0.011512   0.004698   0.002601   0.000195  -0.007806  -0.000124
    29  C   -0.009644   0.003469   0.008621  -0.000006  -0.145981   0.014165
    30  H    0.000915  -0.000425  -0.000860  -0.000067   0.002890   0.000831
    31  H    0.000703  -0.000267   0.000559  -0.000051   0.000537  -0.002287
    32  H    0.001331  -0.000554  -0.000473  -0.000005   0.010848   0.000412
             19         20         21         22         23         24
     1  C    0.000000   0.000001  -0.000032   0.000003   0.000000  -0.000019
     2  C    0.000000   0.000000   0.000007  -0.000001   0.000000   0.000002
     3  C    0.000000   0.000000  -0.000165   0.000014   0.000002   0.000047
     4  C    0.000000   0.000069  -0.012641   0.000598   0.000282  -0.007235
     5  C    0.000016   0.000457   0.016046   0.000059  -0.000271   0.010801
     6  C   -0.000003  -0.000025   0.002325  -0.000230  -0.000021   0.000615
     7  H    0.000000   0.000000   0.000000   0.000000   0.000000  -0.000001
     8  H    0.000000   0.000000   0.000000   0.000000   0.000000   0.000000
     9  H    0.000000   0.000000  -0.000003   0.000000   0.000000  -0.000004
    10  H    0.000000   0.000017   0.005692  -0.000228  -0.000226   0.002431
    11  H   -0.000002  -0.000038   0.000313  -0.000030  -0.000003   0.000143
    12  C   -0.000369  -0.002778  -0.041096   0.000396   0.003395   0.023360
    13  O    0.000142  -0.012553  -1.935543   0.044164   0.046249  -0.652081
    14  H   -0.000047   0.005388   0.446577  -0.024279  -0.025961   0.121028
    15  C    0.004166  -0.099078   0.023944  -0.005763  -0.001443  -0.019871
    16  H   -0.000409   0.005650   0.001710  -0.000451  -0.000047   0.000927
    17  C   -0.037690   0.087336  -0.166742   0.011626   0.012596  -0.007666
    18  O    0.280283  -0.089418   0.006531  -0.000313  -0.000253   0.000087
    19  H    0.304873  -0.002393   0.000430   0.000101   0.000081  -0.000118
    20  C   -0.002393   6.184279   0.176458  -0.080069  -0.049624  -0.057008
    21  C    0.000430   0.176458   7.514956   0.372196   0.360263   0.632610
    22  H    0.000101  -0.080069   0.372196   0.527787  -0.017563  -0.021015
    23  H    0.000081  -0.049624   0.360263  -0.017563   0.519589  -0.017191
    24  H   -0.000118  -0.057008   0.632610  -0.021015  -0.017191   0.631116
    25  C    0.001214   0.198534  -0.151507   0.010647   0.000806  -0.003391
    26  H   -0.000031  -0.043845  -0.005385  -0.000085   0.001677  -0.000250
    27  H    0.000531  -0.045735   0.011434  -0.000547  -0.000263  -0.000593
    28  H   -0.000192  -0.039631   0.011566  -0.000609  -0.002223   0.005958
    29  C   -0.001424   0.247413  -0.146169  -0.010146  -0.017581   0.008770
    30  H    0.000072  -0.046967  -0.000871   0.003467   0.001321  -0.000427
    31  H    0.009795  -0.075240   0.022004   0.000786   0.001179  -0.001021
    32  H    0.000059  -0.040855   0.004203   0.001576   0.004629  -0.000584
             25         26         27         28         29         30
     1  C    0.000000   0.000000   0.000000  -0.000002   0.000000   0.000000
     2  C    0.000000   0.000000   0.000000   0.000000   0.000000   0.000000
     3  C    0.000000   0.000000   0.000000  -0.000003   0.000000   0.000000
     4  C    0.000056   0.000000  -0.000003  -0.000178  -0.000006   0.000002
     5  C   -0.000261   0.000017   0.000007   0.000029   0.000016  -0.000003
     6  C   -0.000038   0.000000   0.000003   0.000078   0.000003  -0.000002
     7  H    0.000000   0.000000   0.000000   0.000000   0.000000   0.000000
     8  H    0.000000   0.000000   0.000000   0.000000   0.000000   0.000000
     9  H    0.000000   0.000000   0.000000   0.000000   0.000000   0.000000
    10  H   -0.000047   0.000000   0.000001   0.000109   0.000008  -0.000001
    11  H   -0.000015   0.000000   0.000001   0.000013   0.000004  -0.000001
    12  C   -0.001940   0.000465  -0.000137  -0.001418   0.000887   0.000102
    13  O    0.023092  -0.000158  -0.000754  -0.011512  -0.009644   0.000915
    14  H   -0.006277   0.000016   0.000262   0.004698   0.003469  -0.000425
    15  C    0.001198  -0.000783   0.001245   0.002601   0.008621  -0.000860
    16  H   -0.000400   0.000011   0.000030   0.000195  -0.000006  -0.000067
    17  C   -0.125137   0.011685  -0.012721  -0.007806  -0.145981   0.002890
    18  O    0.005770  -0.000343   0.004582  -0.000124   0.014165   0.000831
    19  H    0.001214  -0.000031   0.000531  -0.000192  -0.001424   0.000072
    20  C    0.198534  -0.043845  -0.045735  -0.039631   0.247413  -0.046967
    21  C   -0.151507  -0.005385   0.011434   0.011566  -0.146169  -0.000871
    22  H    0.010647  -0.000085  -0.000547  -0.000609  -0.010146   0.003467
    23  H    0.000806   0.001677  -0.000263  -0.002223  -0.017581   0.001321
    24  H   -0.003391  -0.000250  -0.000593   0.005958   0.008770  -0.000427
    25  C    5.465701   0.388287   0.377959   0.374762  -0.145401   0.009239
    26  H    0.388287   0.532629  -0.032245  -0.025077  -0.001934  -0.000038
    27  H    0.377959  -0.032245   0.579107  -0.026251  -0.000128  -0.000512
    28  H    0.374762  -0.025077  -0.026251   0.544179   0.012434  -0.000501
    29  C   -0.145401  -0.001934  -0.000128   0.012434   5.536411   0.379945
    30  H    0.009239  -0.000038  -0.000512  -0.000501   0.379945   0.527321
    31  H   -0.000385  -0.000928   0.001252  -0.000961   0.321623  -0.034486
    32  H   -0.001093   0.002471  -0.001015  -0.000433   0.383130  -0.018675
             31         32
     1  C    0.000000   0.000000
     2  C    0.000000   0.000000
     3  C    0.000000   0.000000
     4  C    0.000001   0.000001
     5  C   -0.000007  -0.000003
     6  C    0.000000   0.000000
     7  H    0.000000   0.000000
     8  H    0.000000   0.000000
     9  H    0.000000   0.000000
    10  H   -0.000001  -0.000001
    11  H   -0.000001   0.000000
    12  C   -0.000470   0.000018
    13  O    0.000703   0.001331
    14  H   -0.000267  -0.000554
    15  C    0.000559  -0.000473
    16  H   -0.000051  -0.000005
    17  C    0.000537   0.010848
    18  O   -0.002287   0.000412
    19  H    0.009795   0.000059
    20  C   -0.075240  -0.040855
    21  C    0.022004   0.004203
    22  H    0.000786   0.001576
    23  H    0.001179   0.004629
    24  H   -0.001021  -0.000584
    25  C   -0.000385  -0.001093
    26  H   -0.000928   0.002471
    27  H    0.001252  -0.001015
    28  H   -0.000961  -0.000433
    29  C    0.321623   0.383130
    30  H   -0.034486  -0.018675
    31  H    0.689627  -0.022146
    32  H   -0.022146   0.498052
 Mulliken atomic charges:
              1
     1  C   -0.182889
     2  C   -0.131528
     3  C   -0.181232
     4  C   -0.136673
     5  C   -0.073035
     6  C   -0.113167
     7  H    0.169486
     8  H    0.168560
     9  H    0.168956
    10  H    0.171797
    11  H    0.191385
    12  C    0.440646
    13  O   -0.343345
    14  H    0.211437
    15  C   -0.151409
    16  H    0.204872
    17  C    0.458227
    18  O   -0.728442
    19  H    0.440915
    20  C   -0.220345
    21  C   -1.149110
    22  H    0.187910
    23  H    0.180602
    24  H    0.350576
    25  C   -0.421373
    26  H    0.173844
    27  H    0.144489
    28  H    0.160301
    29  C   -0.438479
    30  H    0.177732
    31  H    0.090186
    32  H    0.179108
 Sum of Mulliken atomic charges =   0.00000
 Mulliken charges with hydrogens summed into heavy atoms:
              1
     1  C   -0.013404
     2  C    0.037033
     3  C   -0.012276
     4  C    0.035124
     5  C   -0.073035
     6  C    0.078219
    12  C    0.440646
    13  O    0.218668
    15  C    0.053463
    17  C    0.458227
    18  O   -0.287528
    20  C   -0.220345
    21  C   -0.780598
    25  C    0.057260
    29  C    0.008547
 Sum of Mulliken charges with hydrogens summed into heavy atoms =   0.00000
          Atomic-Atomic Spin Densities.
              1          2          3          4          5          6
     1  C   -0.928744   0.005149   0.000411   0.003983  -0.007546   0.010351
     2  C    0.005149   0.935277   0.004787  -0.010761   0.007265  -0.013914
     3  C    0.000411   0.004787  -0.931145   0.002430  -0.001264   0.004743
     4  C    0.003983  -0.010761   0.002430   0.987714  -0.001940  -0.009423
     5  C   -0.007546   0.007265  -0.001264  -0.001940  -1.090961   0.006956
     6  C    0.010351  -0.013914   0.004743  -0.009423   0.006956   0.988222
     7  H    0.001537  -0.002161   0.000051   0.000190   0.000362  -0.000792
     8  H    0.001823  -0.001625   0.001800  -0.000290  -0.000049  -0.000267
     9  H    0.000143  -0.002028   0.002515  -0.001982   0.000356   0.000099
    10  H    0.000047  -0.000220   0.001511   0.000700   0.001493  -0.000288
    11  H    0.003401  -0.000487   0.000082  -0.000148  -0.000334  -0.000929
    12  C   -0.001090   0.000902  -0.001516  -0.036264  -0.000088  -0.009730
    13  O    0.000010  -0.000005  -0.000016  -0.001589   0.007889   0.000120
    14  H    0.000169  -0.000076   0.001159   0.012836  -0.008624  -0.001883
    15  C   -0.000126   0.000014   0.000018   0.000644   0.019789   0.001264
    16  H    0.000103   0.000010   0.000004   0.000116   0.002180  -0.000430
    17  C   -0.000003   0.000000  -0.000002  -0.000055  -0.000522   0.000149
    18  O    0.000000   0.000000   0.000000   0.000000   0.000007  -0.000002
    19  H    0.000000   0.000000   0.000000   0.000000  -0.000003   0.000000
    20  C    0.000000   0.000000   0.000000   0.000015  -0.000149  -0.000005
    21  C    0.000003  -0.000001   0.000031   0.001095  -0.002972  -0.000105
    22  H    0.000000   0.000000  -0.000001   0.000012  -0.000012   0.000016
    23  H    0.000000   0.000000  -0.000001  -0.000011   0.000040   0.000001
    24  H   -0.000006   0.000002  -0.000023   0.000359  -0.002498  -0.000071
    25  C    0.000000   0.000000   0.000000  -0.000011   0.000035   0.000001
    26  H    0.000000   0.000000   0.000000   0.000000   0.000001   0.000000
    27  H    0.000000   0.000000   0.000000   0.000000  -0.000001   0.000000
    28  H    0.000000   0.000000   0.000001   0.000056  -0.000052  -0.000008
    29  C    0.000000   0.000000   0.000000   0.000000   0.000002   0.000000
    30  H    0.000000   0.000000   0.000000   0.000000   0.000002   0.000000
    31  H    0.000000   0.000000   0.000000   0.000000   0.000001   0.000000
    32  H    0.000000   0.000000   0.000000   0.000000   0.000001   0.000000
              7          8          9         10         11         12
     1  C    0.001537   0.001823   0.000143   0.000047   0.003401  -0.001090
     2  C   -0.002161  -0.001625  -0.002028  -0.000220  -0.000487   0.000902
     3  C    0.000051   0.001800   0.002515   0.001511   0.000082  -0.001516
     4  C    0.000190  -0.000290  -0.001982   0.000700  -0.000148  -0.036264
     5  C    0.000362  -0.000049   0.000356   0.001493  -0.000334  -0.000088
     6  C   -0.000792  -0.000267   0.000099  -0.000288  -0.000929  -0.009730
     7  H    0.059069   0.000027  -0.000026   0.000001  -0.000324  -0.000070
     8  H    0.000027  -0.060752   0.000009   0.000026   0.000030   0.000006
     9  H   -0.000026   0.000009   0.059060  -0.000303  -0.000001  -0.000043
    10  H    0.000001   0.000026  -0.000303  -0.056720   0.000030  -0.001067
    11  H   -0.000324   0.000030  -0.000001   0.000030  -0.060016   0.000749
    12  C   -0.000070   0.000006  -0.000043  -0.001067   0.000749   1.262018
    13  O    0.000000   0.000000   0.000001   0.001341   0.000004  -0.116022
    14  H    0.000001  -0.000003   0.000024  -0.004554  -0.000093   0.020939
    15  C    0.000017   0.000000   0.000001   0.000041  -0.000710  -0.068766
    16  H    0.000013   0.000000   0.000000  -0.000003  -0.000011  -0.003216
    17  C    0.000000   0.000000   0.000000   0.000003   0.000021  -0.038920
    18  O    0.000000   0.000000   0.000000   0.000000   0.000000   0.001163
    19  H    0.000000   0.000000   0.000000   0.000000   0.000000  -0.000029
    20  C    0.000000   0.000000   0.000000   0.000013  -0.000006  -0.002584
    21  C    0.000000   0.000000   0.000000  -0.000409  -0.000012   0.031244
    22  H    0.000000   0.000000   0.000000   0.000002   0.000001  -0.002606
    23  H    0.000000   0.000000   0.000000  -0.000016   0.000000  -0.001177
    24  H    0.000000   0.000000  -0.000001   0.000367   0.000002   0.011305
    25  C    0.000000   0.000000   0.000000  -0.000008   0.000001   0.002227
    26  H    0.000000   0.000000   0.000000   0.000002   0.000000  -0.000119
    27  H    0.000000   0.000000   0.000000   0.000000   0.000000   0.000101
    28  H    0.000000   0.000000   0.000000  -0.000001  -0.000002  -0.001844
    29  C    0.000000   0.000000   0.000000   0.000001   0.000000   0.000883
    30  H    0.000000   0.000000   0.000000   0.000000   0.000000  -0.000021
    31  H    0.000000   0.000000   0.000000   0.000000   0.000000  -0.000028
    32  H    0.000000   0.000000   0.000000   0.000000   0.000000  -0.000038
             13         14         15         16         17         18
     1  C    0.000010   0.000169  -0.000126   0.000103  -0.000003   0.000000
     2  C   -0.000005  -0.000076   0.000014   0.000010   0.000000   0.000000
     3  C   -0.000016   0.001159   0.000018   0.000004  -0.000002   0.000000
     4  C   -0.001589   0.012836   0.000644   0.000116  -0.000055   0.000000
     5  C    0.007889  -0.008624   0.019789   0.002180  -0.000522   0.000007
     6  C    0.000120  -0.001883   0.001264  -0.000430   0.000149  -0.000002
     7  H    0.000000   0.000001   0.000017   0.000013   0.000000   0.000000
     8  H    0.000000  -0.000003   0.000000   0.000000   0.000000   0.000000
     9  H    0.000001   0.000024   0.000001   0.000000   0.000000   0.000000
    10  H    0.001341  -0.004554   0.000041  -0.000003   0.000003   0.000000
    11  H    0.000004  -0.000093  -0.000710  -0.000011   0.000021   0.000000
    12  C   -0.116022   0.020939  -0.068766  -0.003216  -0.038920   0.001163
    13  O    0.016268   0.089734   0.005929   0.000107   0.006022  -0.000034
    14  H    0.089734  -0.106125   0.001547  -0.000217   0.000937   0.000010
    15  C    0.005929   0.001547  -1.008751   0.011180   0.093501  -0.003756
    16  H    0.000107  -0.000217   0.011180   0.052317  -0.003743   0.000322
    17  C    0.006022   0.000937   0.093501  -0.003743   1.375579  -0.217490
    18  O   -0.000034   0.000010  -0.003756   0.000322  -0.217490   0.254608
    19  H    0.000004   0.000008  -0.000521  -0.000004  -0.002826  -0.001500
    20  C    0.001563  -0.000361   0.005927   0.000535  -0.081162   0.007041
    21  C   -0.025407  -0.054490   0.003953  -0.000148  -0.013800   0.000366
    22  H    0.001523   0.002724   0.000408   0.000002   0.002820  -0.000198
    23  H    0.002061   0.002864  -0.000035   0.000001   0.001448  -0.000034
    24  H   -0.013287  -0.017753   0.000513   0.000175  -0.001617  -0.000023
    25  C    0.002402   0.000253  -0.001074  -0.000030  -0.038865   0.003340
    26  H   -0.000336   0.000130   0.000016   0.000002   0.002014  -0.000093
    27  H    0.000047  -0.000050  -0.000046  -0.000006  -0.003353   0.000151
    28  H    0.001458  -0.001046   0.000188  -0.000022   0.004452  -0.000308
    29  C   -0.000734  -0.000387  -0.000421  -0.000031  -0.033771   0.004685
    30  H    0.000008   0.000063  -0.000082   0.000004   0.000700  -0.000252
    31  H    0.000015   0.000041   0.000015   0.000001   0.000969  -0.000328
    32  H   -0.000088   0.000116   0.000030   0.000002   0.000190  -0.000054
             19         20         21         22         23         24
     1  C    0.000000   0.000000   0.000003   0.000000   0.000000  -0.000006
     2  C    0.000000   0.000000  -0.000001   0.000000   0.000000   0.000002
     3  C    0.000000   0.000000   0.000031  -0.000001  -0.000001  -0.000023
     4  C    0.000000   0.000015   0.001095   0.000012  -0.000011   0.000359
     5  C   -0.000003  -0.000149  -0.002972  -0.000012   0.000040  -0.002498
     6  C    0.000000  -0.000005  -0.000105   0.000016   0.000001  -0.000071
     7  H    0.000000   0.000000   0.000000   0.000000   0.000000   0.000000
     8  H    0.000000   0.000000   0.000000   0.000000   0.000000   0.000000
     9  H    0.000000   0.000000   0.000000   0.000000   0.000000  -0.000001
    10  H    0.000000   0.000013  -0.000409   0.000002  -0.000016   0.000367
    11  H    0.000000  -0.000006  -0.000012   0.000001   0.000000   0.000002
    12  C   -0.000029  -0.002584   0.031244  -0.002606  -0.001177   0.011305
    13  O    0.000004   0.001563  -0.025407   0.001523   0.002061  -0.013287
    14  H    0.000008  -0.000361  -0.054490   0.002724   0.002864  -0.017753
    15  C   -0.000521   0.005927   0.003953   0.000408  -0.000035   0.000513
    16  H   -0.000004   0.000535  -0.000148   0.000002   0.000001   0.000175
    17  C   -0.002826  -0.081162  -0.013800   0.002820   0.001448  -0.001617
    18  O   -0.001500   0.007041   0.000366  -0.000198  -0.000034  -0.000023
    19  H   -0.003171   0.000097   0.000018   0.000017   0.000007  -0.000019
    20  C    0.000097  -0.139849   0.019876   0.000675   0.000001   0.001980
    21  C    0.000018   0.019876   0.086956  -0.004448  -0.006264   0.023433
    22  H    0.000017   0.000675  -0.004448  -0.005465   0.002179  -0.001089
    23  H    0.000007   0.000001  -0.006264   0.002179   0.000057  -0.003861
    24  H   -0.000019   0.001980   0.023433  -0.001089  -0.003861   0.007046
    25  C    0.000624   0.013669  -0.008445   0.000910   0.004938  -0.005137
    26  H   -0.000053   0.000161   0.000738  -0.000126  -0.001643   0.000733
    27  H    0.000073   0.003080  -0.000148   0.000025   0.000092  -0.000080
    28  H   -0.000015   0.002126  -0.001038  -0.000040  -0.000175   0.000579
    29  C   -0.000319   0.008573   0.003699  -0.001481  -0.002953   0.001953
    30  H   -0.000001   0.001290  -0.000348   0.000040   0.000080  -0.000051
    31  H    0.000141   0.002080  -0.000482   0.000030   0.000105  -0.000071
    32  H   -0.000025   0.001558  -0.001084  -0.000024  -0.000312  -0.000006
             25         26         27         28         29         30
     1  C    0.000000   0.000000   0.000000   0.000000   0.000000   0.000000
     2  C    0.000000   0.000000   0.000000   0.000000   0.000000   0.000000
     3  C    0.000000   0.000000   0.000000   0.000001   0.000000   0.000000
     4  C   -0.000011   0.000000   0.000000   0.000056   0.000000   0.000000
     5  C    0.000035   0.000001  -0.000001  -0.000052   0.000002   0.000002
     6  C    0.000001   0.000000   0.000000  -0.000008   0.000000   0.000000
     7  H    0.000000   0.000000   0.000000   0.000000   0.000000   0.000000
     8  H    0.000000   0.000000   0.000000   0.000000   0.000000   0.000000
     9  H    0.000000   0.000000   0.000000   0.000000   0.000000   0.000000
    10  H   -0.000008   0.000002   0.000000  -0.000001   0.000001   0.000000
    11  H    0.000001   0.000000   0.000000  -0.000002   0.000000   0.000000
    12  C    0.002227  -0.000119   0.000101  -0.001844   0.000883  -0.000021
    13  O    0.002402  -0.000336   0.000047   0.001458  -0.000734   0.000008
    14  H    0.000253   0.000130  -0.000050  -0.001046  -0.000387   0.000063
    15  C   -0.001074   0.000016  -0.000046   0.000188  -0.000421  -0.000082
    16  H   -0.000030   0.000002  -0.000006  -0.000022  -0.000031   0.000004
    17  C   -0.038865   0.002014  -0.003353   0.004452  -0.033771   0.000700
    18  O    0.003340  -0.000093   0.000151  -0.000308   0.004685  -0.000252
    19  H    0.000624  -0.000053   0.000073  -0.000015  -0.000319  -0.000001
    20  C    0.013669   0.000161   0.003080   0.002126   0.008573   0.001290
    21  C   -0.008445   0.000738  -0.000148  -0.001038   0.003699  -0.000348
    22  H    0.000910  -0.000126   0.000025  -0.000040  -0.001481   0.000040
    23  H    0.004938  -0.001643   0.000092  -0.000175  -0.002953   0.000080
    24  H   -0.005137   0.000733  -0.000080   0.000579   0.001953  -0.000051
    25  C    0.100242  -0.009733   0.000838  -0.005815  -0.028664   0.000201
    26  H   -0.009733   0.008353  -0.000229   0.001945   0.003534  -0.000022
    27  H    0.000838  -0.000229  -0.005237  -0.000237  -0.001179   0.000026
    28  H   -0.005815   0.001945  -0.000237  -0.002820   0.000671   0.000011
    29  C   -0.028664   0.003534  -0.001179   0.000671   0.071958  -0.003474
    30  H    0.000201  -0.000022   0.000026   0.000011  -0.003474  -0.001384
    31  H    0.001182  -0.000241   0.000217   0.000034  -0.003517   0.000305
    32  H    0.001046  -0.000547   0.000163   0.000055  -0.000210   0.000327
             31         32
     1  C    0.000000   0.000000
     2  C    0.000000   0.000000
     3  C    0.000000   0.000000
     4  C    0.000000   0.000000
     5  C    0.000001   0.000001
     6  C    0.000000   0.000000
     7  H    0.000000   0.000000
     8  H    0.000000   0.000000
     9  H    0.000000   0.000000
    10  H    0.000000   0.000000
    11  H    0.000000   0.000000
    12  C   -0.000028  -0.000038
    13  O    0.000015  -0.000088
    14  H    0.000041   0.000116
    15  C    0.000015   0.000030
    16  H    0.000001   0.000002
    17  C    0.000969   0.000190
    18  O   -0.000328  -0.000054
    19  H    0.000141  -0.000025
    20  C    0.002080   0.001558
    21  C   -0.000482  -0.001084
    22  H    0.000030  -0.000024
    23  H    0.000105  -0.000312
    24  H   -0.000071  -0.000006
    25  C    0.001182   0.001046
    26  H   -0.000241  -0.000547
    27  H    0.000217   0.000163
    28  H    0.000034   0.000055
    29  C   -0.003517  -0.000210
    30  H    0.000305   0.000327
    31  H   -0.001956   0.000006
    32  H    0.000006  -0.005010
 Mulliken atomic spin densities:
              1
     1  C   -0.910384
     2  C    0.922126
     3  C   -0.914425
     4  C    0.947675
     5  C   -1.070636
     6  C    0.974076
     7  H    0.057893
     8  H   -0.059269
     9  H    0.057822
    10  H   -0.058014
    11  H   -0.058752
    12  C    1.046299
    13  O   -0.021012
    14  H   -0.062107
    15  C   -0.939292
    16  H    0.059212
    17  C    1.052677
    18  O    0.047622
    19  H   -0.007495
    20  C   -0.153855
    21  C    0.051813
    22  H   -0.004108
    23  H   -0.002603
    24  H    0.002856
    25  C    0.034130
    26  H    0.004488
    27  H   -0.005754
    28  H   -0.001844
    29  C    0.018820
    30  H   -0.002577
    31  H   -0.001477
    32  H   -0.003903
 Sum of Mulliken atomic spin densities =   1.00000
 Electronic spatial extent (au):  <R**2>=           4087.0139
 Charge=              0.0000 electrons
 Dipole moment (field-independent basis, Debye):
    X=             -3.2232    Y=              0.6832    Z=              0.7171  Tot=              3.3719
 Quadrupole moment (field-independent basis, Debye-Ang):
   XX=            -80.6433   YY=            -91.7389   ZZ=           -100.9767
   XY=              4.8186   XZ=              2.8815   YZ=             -1.1754
 Traceless Quadrupole moment (field-independent basis, Debye-Ang):
   XX=             10.4763   YY=             -0.6193   ZZ=             -9.8570
   XY=              4.8186   XZ=              2.8815   YZ=             -1.1754
 Octapole moment (field-independent basis, Debye-Ang**2):
  XXX=            -20.5421  YYY=              2.5221  ZZZ=              2.3405  XYY=            -20.8284
  XXY=             26.3231  XXZ=              7.8760  XZZ=             10.5022  YZZ=              4.5045
  YYZ=              2.9852  XYZ=             -4.1689
 Hexadecapole moment (field-independent basis, Debye-Ang**3):
 XXXX=          -4111.0514 YYYY=           -840.3315 ZZZZ=           -301.8306 XXXY=            126.0681
 XXXZ=             24.0804 YYYX=             20.2524 YYYZ=             -8.1655 ZZZX=              1.9000
 ZZZY=             -7.0383 XXYY=           -822.2142 XXZZ=           -885.9622 YYZZ=           -204.4163
 XXYZ=             -9.6120 YYXZ=             10.8569 ZZXY=             18.7740
 N-N= 1.002339084226D+03 E-N=-5.278477664166D+03  KE= 9.817604552234D+02
                          Isotropic Fermi Contact Couplings
        Atom                 a.u.       MegaHertz       Gauss      10(-4) cm-1
     1  C(13)             -0.12914    -145.17844     -51.80327     -48.42631
     2  C(13)              0.12763     143.48392      51.19863      47.86108
     3  C(13)             -0.12941    -145.48337     -51.91208     -48.52803
     4  C(13)              0.12818     144.09699      51.41739      48.06558
     5  C(13)             -0.18009    -202.45328     -72.24036     -67.53114
     6  C(13)              0.13250     148.95076      53.14933      49.68463
     7  H(1)               0.01609      71.91300      25.66035      23.98760
     8  H(1)              -0.01676     -74.92412     -26.73479     -24.99199
     9  H(1)               0.01620      72.39749      25.83322      24.14920
    10  H(1)              -0.01714     -76.59963     -27.33265     -25.55088
    11  H(1)              -0.01782     -79.64902     -28.42075     -26.56805
    12  C(13)              0.20767     233.45778      83.30354      77.87313
    13  O(17)             -0.01934      11.72314       4.18311       3.91042
    14  H(1)              -0.00123      -5.51904      -1.96933      -1.84095
    15  C(13)             -0.16954    -190.59674     -68.00965     -63.57623
    16  H(1)               0.01649      73.71139      26.30206      24.58747
    17  C(13)              0.17638     198.28109      70.75162      66.13945
    18  O(17)              0.06118     -37.08478     -13.23277     -12.37015
    19  H(1)              -0.00290     -12.95650      -4.62320      -4.32182
    20  C(13)             -0.04851     -54.53629     -19.45990     -18.19135
    21  C(13)              0.05786      65.04645      23.21019      21.69716
    22  H(1)              -0.00178      -7.93690      -2.83208      -2.64746
    23  H(1)              -0.00094      -4.18818      -1.49445      -1.39703
    24  H(1)              -0.00063      -2.80562      -1.00112      -0.93585
    25  C(13)              0.04445      49.97578      17.83260      16.67013
    26  H(1)               0.00108       4.84194       1.72773       1.61510
    27  H(1)              -0.00129      -5.77656      -2.06122      -1.92685
    28  H(1)              -0.00078      -3.49061      -1.24554      -1.16434
    29  C(13)              0.01580      17.76165       6.33780       5.92465
    30  H(1)              -0.00081      -3.63132      -1.29575      -1.21128
    31  H(1)              -0.00055      -2.45128      -0.87468      -0.81766
    32  H(1)              -0.00083      -3.71125      -1.32427      -1.23794
 --------------------------------------------------------
       Center         ----  Spin Dipole Couplings  ----
                      3XX-RR        3YY-RR        3ZZ-RR
 --------------------------------------------------------
     1   Atom        0.272962      0.256543     -0.529505
     2   Atom       -0.259288     -0.292165      0.551454
     3   Atom        0.273553      0.260040     -0.533594
     4   Atom       -0.285293     -0.279603      0.564896
     5   Atom        0.236644      0.289360     -0.526004
     6   Atom       -0.293863     -0.283398      0.577261
     7   Atom        0.024219     -0.025332      0.001113
     8   Atom        0.047226     -0.044332     -0.002894
     9   Atom        0.019244     -0.020375      0.001131
    10   Atom       -0.023247      0.028611     -0.005364
    11   Atom       -0.021003      0.025723     -0.004720
    12   Atom       -0.368187     -0.447130      0.815317
    13   Atom       -0.003365     -0.176490      0.179855
    14   Atom       -0.004053      0.014097     -0.010043
    15   Atom        0.259096      0.293201     -0.552297
    16   Atom        0.029537     -0.029204     -0.000332
    17   Atom       -0.423639     -0.446538      0.870177
    18   Atom       -0.330412     -0.379825      0.710237
    19   Atom        0.037424     -0.020986     -0.016438
    20   Atom        0.006902     -0.010853      0.003951
    21   Atom        0.028510     -0.011932     -0.016579
    22   Atom       -0.004927     -0.001403      0.006330
    23   Atom       -0.001137      0.006684     -0.005547
    24   Atom        0.019362     -0.004411     -0.014951
    25   Atom       -0.012555     -0.007205      0.019760
    26   Atom       -0.000867      0.003276     -0.002409
    27   Atom        0.000767     -0.002255      0.001487
    28   Atom       -0.001572     -0.001417      0.002989
    29   Atom        0.019337     -0.008509     -0.010828
    30   Atom        0.003020     -0.003949      0.000928
    31   Atom        0.008092     -0.003496     -0.004596
    32   Atom        0.001962      0.001257     -0.003219
 --------------------------------------------------------
                        XY            XZ            YZ
 --------------------------------------------------------
     1   Atom        0.010667     -0.000266     -0.005693
     2   Atom       -0.001084      0.000320      0.005873
     3   Atom       -0.012101     -0.000536     -0.005694
     4   Atom       -0.007120      0.000274      0.006611
     5   Atom       -0.005314      0.000727     -0.005467
     6   Atom        0.011068     -0.000079      0.005703
     7   Atom        0.034678     -0.000258      0.000184
     8   Atom       -0.003217      0.000029      0.000285
     9   Atom       -0.038138      0.000269      0.000130
    10   Atom       -0.031370      0.000824     -0.000474
    11   Atom        0.040484     -0.000303     -0.000198
    12   Atom        0.019439      0.002532      0.007830
    13   Atom        0.092819     -0.024616     -0.075575
    14   Atom        0.003857      0.000135      0.004843
    15   Atom        0.011506      0.002701     -0.006638
    16   Atom        0.035459     -0.000303      0.000374
    17   Atom       -0.017864     -0.002549      0.016383
    18   Atom       -0.017666      0.011396      0.013648
    19   Atom        0.011206     -0.000008      0.000528
    20   Atom        0.012623      0.000650      0.002320
    21   Atom        0.005568     -0.033252      0.002721
    22   Atom        0.000025     -0.002466      0.004662
    23   Atom       -0.007008     -0.001881      0.001756
    24   Atom       -0.039233     -0.010636      0.012383
    25   Atom       -0.010239      0.019513     -0.023888
    26   Atom       -0.004666      0.001879     -0.001849
    27   Atom       -0.001189      0.008451     -0.002185
    28   Atom        0.000961     -0.001023     -0.007501
    29   Atom       -0.005727     -0.009051      0.001509
    30   Atom       -0.003668     -0.006221      0.002194
    31   Atom       -0.002007     -0.000279      0.001087
    32   Atom       -0.003994     -0.001006      0.000564
 --------------------------------------------------------


 ---------------------------------------------------------------------------------
              Anisotropic Spin Dipole Couplings in Principal Axis System
 ---------------------------------------------------------------------------------

       Atom             a.u.   MegaHertz   Gauss  10(-4) cm-1        Axes

              Baa    -0.5295   -71.060   -25.356   -23.703  0.0002  0.0072  1.0000
     1 C(13)  Bbb     0.2513    33.725    12.034    11.250 -0.4422  0.8969 -0.0064
              Bcc     0.2782    37.335    13.322    12.454  0.8969  0.4422 -0.0034
 
              Baa    -0.2922   -39.216   -13.993   -13.081  0.0329  0.9994 -0.0070
     2 C(13)  Bbb    -0.2593   -34.789   -12.414   -11.604  0.9995 -0.0329 -0.0002
              Bcc     0.5515    74.005    26.407    24.686  0.0004  0.0070  1.0000
 
              Baa    -0.5336   -71.609   -25.552   -23.886  0.0008  0.0072  1.0000
     3 C(13)  Bbb     0.2530    33.946    12.113    11.323  0.5067  0.8621 -0.0066
              Bcc     0.2807    37.662    13.439    12.563  0.8621 -0.5067  0.0030
 
              Baa    -0.2901   -38.933   -13.892   -12.987  0.8271  0.5621 -0.0046
     4 C(13)  Bbb    -0.2748   -36.877   -13.159   -12.301 -0.5621  0.8270 -0.0063
              Bcc     0.5649    75.811    27.051    25.288  0.0003  0.0078  1.0000
 
              Baa    -0.5260   -70.590   -25.188   -23.546 -0.0009  0.0067  1.0000
     5 C(13)  Bbb     0.2361    31.684    11.306    10.569  0.9951  0.0993  0.0002
              Bcc     0.2899    38.905    13.882    12.977 -0.0993  0.9950 -0.0068
 
              Baa    -0.3009   -40.376   -14.407   -13.468  0.8444 -0.5357  0.0036
     6 C(13)  Bbb    -0.2764   -37.092   -13.235   -12.373  0.5357  0.8444 -0.0056
              Bcc     0.5773    77.468    27.642    25.841  0.0000  0.0066  1.0000
 
              Baa    -0.0432   -23.037    -8.220    -7.684 -0.4575  0.8892 -0.0064
     7 H(1)   Bbb     0.0011     0.594     0.212     0.198  0.0002  0.0073  1.0000
              Bcc     0.0421    22.443     8.008     7.486  0.8892  0.4575 -0.0035
 
              Baa    -0.0444   -23.715    -8.462    -7.910  0.0351  0.9994 -0.0069
     8 H(1)   Bbb    -0.0029    -1.543    -0.551    -0.515 -0.0001  0.0069  1.0000
              Bcc     0.0473    25.258     9.013     8.425  0.9994 -0.0351  0.0004
 
              Baa    -0.0435   -23.232    -8.290    -7.750  0.5192  0.8547 -0.0056
     9 H(1)   Bbb     0.0011     0.604     0.215     0.201 -0.0005  0.0068  1.0000
              Bcc     0.0424    22.629     8.074     7.548  0.8547 -0.5191  0.0039
 
              Baa    -0.0380   -20.289    -7.240    -6.768  0.9047  0.4258 -0.0166
    10 H(1)   Bbb    -0.0054    -2.864    -1.022    -0.955  0.0083  0.0216  0.9997
              Bcc     0.0434    23.152     8.261     7.723 -0.4260  0.9046 -0.0160
 
              Baa    -0.0444   -23.681    -8.450    -7.899  0.8660 -0.5001  0.0041
    11 H(1)   Bbb    -0.0047    -2.519    -0.899    -0.840 -0.0006  0.0072  1.0000
              Bcc     0.0491    26.200     9.349     8.739  0.5001  0.8660 -0.0060
 
              Baa    -0.4517   -60.613   -21.628   -20.218 -0.2266  0.9740 -0.0056
    12 C(13)  Bbb    -0.3637   -48.802   -17.414   -16.278  0.9740  0.2265 -0.0036
              Bcc     0.8154   109.415    39.042    36.497  0.0022  0.0062  1.0000
 
              Baa    -0.2258    16.339     5.830     5.450 -0.3667  0.9183  0.1488
    13 O(17)  Bbb     0.0210    -1.520    -0.542    -0.507  0.9041  0.3141  0.2896
              Bcc     0.2048   -14.819    -5.288    -4.943 -0.2192 -0.2408  0.9455
 
              Baa    -0.0110    -5.887    -2.101    -1.964  0.0928 -0.2021  0.9750
    14 H(1)   Bbb    -0.0047    -2.524    -0.901    -0.842  0.9776 -0.1674 -0.1278
              Bcc     0.0158     8.412     3.002     2.806  0.1890  0.9649  0.1820
 
              Baa    -0.5524   -74.121   -26.448   -24.724 -0.0034  0.0079  1.0000
    15 C(13)  Bbb     0.2556    34.299    12.239    11.441  0.9565 -0.2917  0.0056
              Bcc     0.2968    39.822    14.209    13.283  0.2918  0.9565 -0.0065
 
              Baa    -0.0459   -24.480    -8.735    -8.166 -0.4255  0.9049 -0.0103
    16 H(1)   Bbb    -0.0003    -0.175    -0.062    -0.058 -0.0021  0.0103  0.9999
              Bcc     0.0462    24.655     8.798     8.224  0.9050  0.4255 -0.0025
 
              Baa    -0.4564   -61.250   -21.855   -20.431  0.4777  0.8785 -0.0099
    17 C(13)  Bbb    -0.4139   -55.548   -19.821   -18.529  0.8785 -0.4776  0.0078
              Bcc     0.8704   116.798    41.676    38.959 -0.0021  0.0125  0.9999
 
              Baa    -0.3857    27.912     9.960     9.310  0.3069  0.9516 -0.0150
    18 O(17)  Bbb    -0.3248    23.501     8.386     7.839  0.9517 -0.3071 -0.0064
              Bcc     0.7105   -51.413   -18.346   -17.150  0.0107  0.0123  0.9999
 
              Baa    -0.0231   -12.326    -4.398    -4.112 -0.1815  0.9803 -0.0779
    19 H(1)   Bbb    -0.0164    -8.749    -3.122    -2.918 -0.0157  0.0763  0.9970
              Bcc     0.0395    21.075     7.520     7.030  0.9833  0.1822  0.0016
 
              Baa    -0.0176    -2.355    -0.840    -0.786 -0.4554  0.8865 -0.0819
    20 C(13)  Bbb     0.0038     0.512     0.183     0.171 -0.1864 -0.0050  0.9825
              Bcc     0.0137     1.843     0.658     0.615  0.8705  0.4627  0.1675
 
              Baa    -0.0353    -4.736    -1.690    -1.580  0.4662 -0.2112  0.8591
    21 C(13)  Bbb    -0.0111    -1.487    -0.530    -0.496  0.0441  0.9754  0.2158
              Bcc     0.0464     6.222     2.220     2.076  0.8836  0.0627 -0.4640
 
              Baa    -0.0058    -3.091    -1.103    -1.031  0.8905 -0.3335  0.3094
    22 H(1)   Bbb    -0.0031    -1.647    -0.588    -0.549  0.4259  0.8502 -0.3094
              Bcc     0.0089     4.738     1.691     1.580 -0.1599  0.4073  0.8992
 
              Baa    -0.0064    -3.403    -1.214    -1.135  0.5274  0.1711  0.8322
    23 H(1)   Bbb    -0.0048    -2.553    -0.911    -0.852  0.6821  0.4987 -0.5349
              Bcc     0.0112     5.956     2.125     1.987 -0.5065  0.8497  0.1463
 
              Baa    -0.0343   -18.310    -6.533    -6.108  0.5479  0.8082 -0.2159
    24 H(1)   Bbb    -0.0179    -9.568    -3.414    -3.192  0.3135  0.0408  0.9487
              Bcc     0.0522    27.878     9.948     9.299  0.7756 -0.5875 -0.2310
 
              Baa    -0.0222    -2.977    -1.062    -0.993  0.6924 -0.4393 -0.5723
    25 C(13)  Bbb    -0.0203    -2.727    -0.973    -0.910  0.6186  0.7697  0.1576
              Bcc     0.0425     5.705     2.036     1.903  0.3713 -0.4631  0.8048
 
              Baa    -0.0042    -2.232    -0.796    -0.744  0.8055  0.3942 -0.4424
    26 H(1)   Bbb    -0.0028    -1.511    -0.539    -0.504  0.2502  0.4505  0.8570
              Bcc     0.0070     3.743     1.336     1.249 -0.5372  0.8010 -0.2643
 
              Baa    -0.0074    -3.959    -1.413    -1.321  0.7023 -0.1341 -0.6992
    27 H(1)   Bbb    -0.0026    -1.406    -0.502    -0.469  0.2297  0.9722  0.0442
              Bcc     0.0101     5.365     1.914     1.790  0.6738 -0.1917  0.7136
 
              Baa    -0.0070    -3.754    -1.340    -1.252 -0.0294  0.8018  0.5969
    28 H(1)   Bbb    -0.0018    -0.936    -0.334    -0.312  0.9906 -0.0564  0.1244
              Bcc     0.0088     4.691     1.674     1.565 -0.1334 -0.5949  0.7926
 
              Baa    -0.0133    -1.790    -0.639    -0.597  0.2701  0.0196  0.9626
    29 C(13)  Bbb    -0.0096    -1.291    -0.461    -0.431  0.1729  0.9826 -0.0686
              Bcc     0.0230     3.081     1.099     1.028  0.9472 -0.1849 -0.2620
 
              Baa    -0.0056    -2.991    -1.067    -0.998  0.4952  0.8485  0.1866
    30 H(1)   Bbb    -0.0040    -2.130    -0.760    -0.710  0.4579 -0.4374  0.7740
              Bcc     0.0096     5.121     1.827     1.708  0.7383 -0.2979 -0.6051
 
              Baa    -0.0053    -2.838    -1.013    -0.947 -0.0674 -0.5647  0.8225
    31 H(1)   Bbb    -0.0031    -1.668    -0.595    -0.556  0.1586  0.8078  0.5677
              Bcc     0.0084     4.506     1.608     1.503  0.9850 -0.1687 -0.0351
 
              Baa    -0.0034    -1.828    -0.652    -0.610  0.2547  0.1014  0.9617
    32 H(1)   Bbb    -0.0023    -1.245    -0.444    -0.415  0.6290  0.7380 -0.2444
              Bcc     0.0058     3.073     1.097     1.025  0.7345 -0.6671 -0.1242
 

 ---------------------------------------------------------------------------------

 1|1|UNPC-DESKTOP-K2VF0AK|SP|UHF|6-311G|C13H17O2(2)|MELIH|25-Nov-2024|0
 ||# hf/6-311g geom=connectivity||Title Card Required||0,2|C,0,2.474519
 99,-1.5378404,-0.30731163|C,0,3.86521178,-1.68794785,-0.39313739|C,0,4
 .69466383,-0.55862458,-0.36946899|C,0,4.13342422,0.720806,-0.25997265|
 C,0,2.74273246,0.87091342,-0.17414644|C,0,1.91328045,-0.2584099,-0.197
 81398|H,0,1.84121489,-2.40010374,-0.32538368|H,0,4.2937307,-2.66482151
 ,-0.47673986|H,0,5.75648796,-0.67323503,-0.43499747|H,0,4.76672926,1.5
 830694,-0.2419016|H,0,0.8514566,-0.14379976,-0.13228058|C,0,2.12598554
 ,2.27688119,-0.0538224|O,0,2.97236502,3.42925206,-0.02967407|H,0,3.767
 24816,3.25318998,-0.53836154|C,0,0.78114093,2.42203981,0.02917755|H,0,
 0.14783589,1.55977642,0.01110644|C,0,0.16439421,3.82800737,0.14950507|
 O,0,-1.08439019,3.96279765,0.22657428|H,0,-1.46885556,4.83924482,0.301
 58586|C,0,1.07588014,5.06902178,0.17551712|C,0,2.35100681,4.78659123,-
 0.64050064|H,0,2.08452222,4.56092039,-1.65191481|H,0,2.98431197,5.6488
 5449,-0.62242733|H,0,2.87015086,3.95376459,-0.21413314|C,0,1.45941871,
 5.39381906,1.63119734|H,0,2.09272387,6.25608231,1.64927065|H,0,0.57345
 408,5.59005327,2.19817072|H,0,1.97856276,4.56099242,2.05756483|C,0,0.3
 2870085,6.26766947,-0.43813329|H,0,0.06221627,6.04199863,-1.44954747|H
 ,0,-0.55726378,6.46390368,0.12884009|H,0,0.96200601,7.12993273,-0.4200
 5998||Version=IA32W-G09RevA.02|State=2-A|HF=-650.7449924|S2=1.665634|S
 2-1=0.|S2A=1.777769|RMSD=8.675e-009|Dipole=0.3242499,-1.2724292,0.1889
 145|Quadrupole=3.8289523,3.0964411,-6.9253933,-5.2491271,-1.1358118,3.
 2452661|PG=C01 [X(C13H17O2)]||@


 I WOULD TAKE COUNSEL OF MYSELF.
 I WOULD STOP AND LOOK WITHIN
 AND LOOKING WITHIN, LOOK BACK, ALSO
 THAT I MAY LOOK AHEAD WITH CLEARER UNDERSTANDING
 OF THE WAY I HAVE BEEN MOVING, AND IN WHAT DIRECTION.
 I NEED TO KNOW IF I AM GOING FORWARD OR RETREATING,
 WHETHER I HAVE BEEN WASTING, OR ENJOYING
 THE PRECIOUS MOMENTS OF LIFE.  THERE HAVE BEEN FRICTIONS,
 ANNOYANCES AND SOMETIMES WRATH,
 BUT WERE THEY BECAUSE I WAS RIGHT AND OTHERS WRONG.....
 HAVE I HAD MY THOUGHTS TOO SHARPLY FOCUSED
 ON THAT WHICH PLEASED ME, SERVED MY SELF-ESTEEM,
 UNDERGIRDED MY SECURITY,
 OF WHICH I DID NOT INQUIRE WHETHER IT SERVED OR HAMPERED OTHERS.....
 HAVE I BEEN TRYING TO STOP THE CLOCK
 TO HOLD THE WORLD
 IN PERPETUATION OF WHAT WAS AN IS ALREADY SLIPPING AWAY.....
 HAVE I BEEN CRITICAL OF OTHERS FOR WHAT REALLY NEEDED CHANGING IN ME...
 LET ME INDEED TAKE COUNSEL OF MYSELF
 AND SET MY DIRECTIONS STRAIGHT.

                          R.T. WESTON AS ADAPTED BY D. OSBORN 1967
 Job cpu time:  0 days  0 hours  6 minutes 30.0 seconds.
 File lengths (MBytes):  RWF=     61 Int=      0 D2E=      0 Chk=      4 Scr=      1
 Normal termination of Gaussian 09 at Mon Nov 25 18:33:02 2024.
