 Entering Link 1 = C:\G09W\l1.exe PID=     19444.
  
 Copyright (c) 1988,1990,1992,1993,1995,1998,2003,2009, Gaussian, Inc.
                  All Rights Reserved.
  
 This is part of the Gaussian(R) 09 program.  It is based on
 the Gaussian(R) 03 system (copyright 2003, Gaussian, Inc.),
 the Gaussian(R) 98 system (copyright 1998, Gaussian, Inc.),
 the Gaussian(R) 94 system (copyright 1995, Gaussian, Inc.),
 the Gaussian 92(TM) system (copyright 1992, Gaussian, Inc.),
 the Gaussian 90(TM) system (copyright 1990, Gaussian, Inc.),
 the Gaussian 88(TM) system (copyright 1988, Gaussian, Inc.),
 the Gaussian 86(TM) system (copyright 1986, Carnegie Mellon
 University), and the Gaussian 82(TM) system (copyright 1983,
 Carnegie Mellon University). Gaussian is a federally registered
 trademark of Gaussian, Inc.
  
 This software contains proprietary and confidential information,
 including trade secrets, belonging to Gaussian, Inc.
  
 This software is provided under written license and may be
 used, copied, transmitted, or stored only in accord with that
 written license.
  
 The following legend is applicable only to US Government
 contracts under FAR:
  
                    RESTRICTED RIGHTS LEGEND
  
 Use, reproduction and disclosure by the US Government is
 subject to restrictions as set forth in subparagraphs (a)
 and (c) of the Commercial Computer Software - Restricted
 Rights clause in FAR 52.227-19.
  
 Gaussian, Inc.
 340 Quinnipiac St., Bldg. 40, Wallingford CT 06492
  
  
 ---------------------------------------------------------------
 Warning -- This program may not be used in any manner that
 competes with the business of Gaussian, Inc. or will provide
 assistance to any competitor of Gaussian, Inc.  The licensee
 of this program is prohibited from giving any competitor of
 Gaussian, Inc. access to this program.  By using this program,
 the user acknowledges that Gaussian, Inc. is engaged in the
 business of creating and licensing software in the field of
 computational chemistry and represents and warrants to the
 licensee that it is not a competitor of Gaussian, Inc. and that
 it will not use this program in any manner prohibited above.
 ---------------------------------------------------------------
  

 Cite this work as:
 Gaussian 09, Revision A.02,
 M. J. Frisch, G. W. Trucks, H. B. Schlegel, G. E. Scuseria, 
 M. A. Robb, J. R. Cheeseman, G. Scalmani, V. Barone, B. Mennucci, 
 G. A. Petersson, H. Nakatsuji, M. Caricato, X. Li, H. P. Hratchian, 
 A. F. Izmaylov, J. Bloino, G. Zheng, J. L. Sonnenberg, M. Hada, 
 M. Ehara, K. Toyota, R. Fukuda, J. Hasegawa, M. Ishida, T. Nakajima, 
 Y. Honda, O. Kitao, H. Nakai, T. Vreven, J. A. Montgomery, Jr., 
 J. E. Peralta, F. Ogliaro, M. Bearpark, J. J. Heyd, E. Brothers, 
 K. N. Kudin, V. N. Staroverov, R. Kobayashi, J. Normand, 
 K. Raghavachari, A. Rendell, J. C. Burant, S. S. Iyengar, J. Tomasi, 
 M. Cossi, N. Rega, J. M. Millam, M. Klene, J. E. Knox, J. B. Cross, 
 V. Bakken, C. Adamo, J. Jaramillo, R. Gomperts, R. E. Stratmann, 
 O. Yazyev, A. J. Austin, R. Cammi, C. Pomelli, J. W. Ochterski, 
 R. L. Martin, K. Morokuma, V. G. Zakrzewski, G. A. Voth, 
 P. Salvador, J. J. Dannenberg, S. Dapprich, A. D. Daniels, 
 O. Farkas, J. B. Foresman, J. V. Ortiz, J. Cioslowski, 
 and D. J. Fox, Gaussian, Inc., Wallingford CT, 2009.
 
 ******************************************
 Gaussian 09:  IA32W-G09RevA.02 11-Jun-2009
                28-Nov-2024 
 ******************************************
 %chk=C:\G09W\Midterm1\E2freq.chk
 ----------------------------------
 # freq hf/6-311g geom=connectivity
 ----------------------------------
 1/10=4,30=1,38=1,57=2/1,3;
 2/12=2,17=6,18=5,40=1/2;
 3/5=4,6=6,11=9,16=1,25=1,30=1,71=2/1,2,3;
 4//1;
 5/5=2,38=5,98=1/2;
 8/6=4,10=90,11=11/1;
 10/13=10,15=4/2;
 11/6=3,8=1,9=11,15=111,16=1/1,2,10;
 10/6=1/2;
 6/7=2,8=2,9=2,10=2,18=1,28=1/1;
 7/8=1,10=1,25=1/1,2,3,16;
 1/10=4,30=1/3;
 99//99;
 -------------------
 Title Card Required
 -------------------
 Symbolic Z-matrix:
 Charge =  0 Multiplicity = 1
 C                     2.47452  -1.53784  -0.30731 
 C                     3.86521  -1.68795  -0.39314 
 C                     4.69466  -0.55862  -0.36947 
 C                     4.13342   0.72081  -0.25997 
 C                     2.74273   0.87091  -0.17415 
 C                     1.91328  -0.25841  -0.19781 
 H                     1.84121  -2.4001   -0.32538 
 H                     4.29373  -2.66482  -0.47674 
 H                     5.75649  -0.67324  -0.435 
 H                     4.76673   1.58307  -0.2419 
 H                     0.85146  -0.1438   -0.13228 
 C                     2.12599   2.27688  -0.05382 
 O                     2.97237   3.42925  -0.02967 
 H                     3.76725   3.25319  -0.53836 
 C                     0.78114   2.42204   0.02918 
 H                     0.14784   1.55978   0.01111 
 C                     0.16439   3.82801   0.14951 
 O                     0.90729   4.82768   0.32934 
 C                    -1.36149   4.0106    0.04975 
 C                    -2.02322   3.5213    1.3514 
 H                    -1.64922   4.08973   2.17719 
 H                    -3.08341   3.64817   1.28209 
 H                    -1.79681   2.48605   1.49932 
 C                    -1.89977   3.1925   -1.13876 
 H                    -2.95996   3.31937  -1.20807 
 H                    -1.43999   3.53247  -2.04316 
 H                    -1.67335   2.15724  -0.99084 
 C                    -1.68735   5.5006   -0.16315 
 H                    -1.31335   6.06902   0.66264 
 H                    -1.22757   5.84056  -1.06754 
 H                    -2.74754   5.62747  -0.23246 
 

 GradGradGradGradGradGradGradGradGradGradGradGradGradGradGradGradGradGrad
 Berny optimization.
 Initialization pass.
 Trust Radius=3.00D-01 FncErr=1.00D-07 GrdErr=1.00D-07
 Number of steps in this run=   2 maximum allowed number of steps=   2.
 GradGradGradGradGradGradGradGradGradGradGradGradGradGradGradGradGradGrad

                          Input orientation:                          
 ---------------------------------------------------------------------
 Center     Atomic      Atomic             Coordinates (Angstroms)
 Number     Number       Type             X           Y           Z
 ---------------------------------------------------------------------
      1          6           0        2.474520   -1.537840   -0.307312
      2          6           0        3.865212   -1.687948   -0.393137
      3          6           0        4.694664   -0.558625   -0.369469
      4          6           0        4.133424    0.720806   -0.259973
      5          6           0        2.742732    0.870913   -0.174146
      6          6           0        1.913280   -0.258410   -0.197814
      7          1           0        1.841215   -2.400104   -0.325384
      8          1           0        4.293731   -2.664822   -0.476740
      9          1           0        5.756488   -0.673235   -0.434997
     10          1           0        4.766729    1.583069   -0.241902
     11          1           0        0.851457   -0.143800   -0.132281
     12          6           0        2.125986    2.276881   -0.053822
     13          8           0        2.972365    3.429252   -0.029674
     14          1           0        3.767248    3.253190   -0.538362
     15          6           0        0.781141    2.422040    0.029178
     16          1           0        0.147836    1.559776    0.011106
     17          6           0        0.164394    3.828007    0.149505
     18          8           0        0.907286    4.827678    0.329345
     19          6           0       -1.361485    4.010602    0.049749
     20          6           0       -2.023218    3.521304    1.351401
     21          1           0       -1.649216    4.089726    2.177185
     22          1           0       -3.083407    3.648172    1.282090
     23          1           0       -1.796805    2.486047    1.499322
     24          6           0       -1.899767    3.192499   -1.138762
     25          1           0       -2.959956    3.319367   -1.208073
     26          1           0       -1.439992    3.532466   -2.043157
     27          1           0       -1.673355    2.157242   -0.990841
     28          6           0       -1.687350    5.500598   -0.163147
     29          1           0       -1.313349    6.069020    0.662637
     30          1           0       -1.227575    5.840565   -1.067541
     31          1           0       -2.747539    5.627466   -0.232457
 ---------------------------------------------------------------------
                    Distance matrix (angstroms):
                    1          2          3          4          5
     1  C    0.000000
     2  C    1.401400   0.000000
     3  C    2.427296   1.401400   0.000000
     4  C    2.802800   2.427296   1.401400   0.000000
     5  C    2.427296   2.802800   2.427296   1.401400   0.000000
     6  C    1.401400   2.427296   2.802800   2.427296   1.401400
     7  H    1.070000   2.146700   3.396345   3.872800   3.396345
     8  H    2.146700   1.070000   2.146700   3.396345   3.872800
     9  H    3.396345   2.146700   1.070000   2.146700   3.396345
    10  H    3.872800   3.396345   2.146700   1.070000   2.146700
    11  H    2.146700   3.396345   3.872800   3.396345   2.146700
    12  C    3.838989   4.342800   3.838989   2.548270   1.540000
    13  O    4.999694   5.207208   4.357170   2.955804   2.572683
    14  H    4.967746   4.944242   3.926647   2.573821   2.618688
    15  C    4.319885   5.155758   4.935478   3.770359   2.509019
    16  H    3.887168   4.952778   5.030517   4.081944   2.691159
    17  C    5.859837   6.664554   6.327339   5.057230   3.936621
    18  O    6.586454   7.191988   6.621543   5.255631   4.390712
    19  C    6.754824   7.745191   7.598060   6.411920   5.172270
    20  C    6.969642   8.053156   8.045939   6.952953   5.662698
    21  H    7.405905   8.390291   8.266645   7.122380   5.931166
    22  H    7.766046   8.919857   8.995730   7.939148   6.616471
    23  H    6.140017   7.284372   7.409560   6.432637   5.100643
    24  C    6.496292   7.590106   7.625567   6.578825   5.279493
    25  H    7.344206   8.504131   8.621791   7.613637   6.291628
    26  H    6.636609   7.623679   7.561234   6.492161   5.298325
    27  H    5.596938   6.768933   6.950806   6.026293   4.671559
    28  C    8.178115   9.086200   8.802661   7.532410   6.407787
    29  H    8.552957   9.386304   9.004839   7.689079   6.646226
    30  H    8.290013   9.114263   8.746990   7.456836   6.423311
    31  H    8.866629   9.862533   9.678474   8.451256   7.264384
                    6          7          8          9         10
     6  C    0.000000
     7  H    2.146700   0.000000
     8  H    3.396345   2.471400   0.000000
     9  H    3.872800   4.280590   2.471400   0.000000
    10  H    3.396345   4.942800   4.280590   2.471400   0.000000
    11  H    1.070000   2.471400   4.280590   4.942800   4.280590
    12  C    2.548270   4.693509   5.412800   4.693509   2.736837
    13  O    3.840414   5.945446   6.251688   4.974538   2.583249
    14  H    3.985537   5.976177   5.941704   4.402791   1.968795
    15  C    2.918574   4.950004   6.202451   5.877947   4.081944
    16  H    2.542881   4.319885   5.939164   6.053291   4.625876
    17  C    4.458480   6.467350   7.720131   7.202384   5.135605
    18  O    5.211354   7.317221   8.261678   7.372857   5.074358
    19  C    5.386078   7.176013   8.764698   8.534568   6.597953
    20  C    5.672946   7.266947   9.028515   9.017161   7.238698
    21  H    6.102318   7.782278   9.380077   9.184430   7.300662
    22  H    6.512939   7.963511   9.867600   9.988327   8.259045
    23  H    4.917016   6.359183   8.217718   8.412781   6.850344
    24  C    5.228144   6.777444   8.550199   8.605663   6.916415
    25  H    6.129400   7.519490   9.431932   9.618468   7.978088
    26  H    5.387065   6.993744   8.586944   8.489018   6.750412
    27  H    4.396387   5.793482   7.689129   7.970140   6.508861
    28  C    6.792048   8.654373  10.126487   9.674753   7.550389
    29  H    7.154571   9.091398  10.441145   9.830839   7.609815
    30  H    6.915120   8.824788  10.157532   9.571146   7.398624
    31  H    7.507860   9.247009  10.881231  10.585760   8.533549
                   11         12         13         14         15
    11  H    0.000000
    12  C    2.736837   0.000000
    13  O    4.156378   1.430000   0.000000
    14  H    4.495140   1.970203   0.960000   0.000000
    15  C    2.571876   1.355200   2.412344   3.151150   0.000000
    16  H    1.848733   2.105120   3.387413   4.033573   1.070000
    17  C    4.040632   2.509019   2.841797   3.712699   1.540000
    18  O    4.993176   2.852825   2.519731   3.378063   2.427572
    19  C    4.710552   3.896019   4.373389   5.217610   2.667358
    20  C    4.888563   4.554023   5.183791   6.096932   3.289542
    21  H    5.432287   4.745098   5.163862   6.116541   3.647157
    22  H    5.644700   5.550033   6.200082   7.099403   4.243574
    23  H    4.073268   4.224251   5.096317   5.974893   2.968371
    24  C    4.439947   4.268740   5.002380   5.699055   3.024064
    25  H    5.260962   5.318447   6.049226   6.760782   4.041261
    26  H    4.734672   4.272019   4.851151   5.427500   3.234354
    27  H    3.522300   3.915010   4.911676   5.568303   2.671162
    28  C    6.189161   4.994580   5.101101   5.911368   3.950691
    29  H    6.627021   5.169396   5.080848   5.931590   4.253072
    30  H    6.403882   4.997383   4.952887   5.650026   4.113884
    31  H    6.802228   5.916888   6.131115   6.940693   4.774389
                   16         17         18         19         20
    16  H    0.000000
    17  C    2.272510   0.000000
    18  O    3.370047   1.258400   0.000000
    19  C    2.878557   1.540000   2.427572   0.000000
    20  C    3.218300   2.514809   3.367352   1.540000   0.000000
    21  H    3.784434   2.732978   3.239566   2.148263   1.070000
    22  H    4.051879   3.444314   4.269026   2.148263   1.070000
    23  H    2.618089   2.732978   3.763534   2.148263   1.070000
    24  C    2.860185   2.514809   3.564925   1.540000   2.514809
    25  H    3.773716   3.444314   4.426535   2.148263   2.732978
    26  H    3.260782   2.732978   3.579951   2.148263   3.444314
    27  H    2.162776   2.732978   3.941297   2.148263   2.732978
    28  C    4.350672   2.514809   2.725344   1.540000   2.514809
    29  H    4.784645   2.732978   2.565781   2.148263   2.732978
    30  H    4.623893   2.732978   2.744970   2.148263   3.444314
    31  H    4.998861   3.444314   3.783256   2.148263   2.732978
                   21         22         23         24         25
    21  H    0.000000
    22  H    1.747303   0.000000
    23  H    1.747303   1.747303   0.000000
    24  C    3.444314   2.732978   2.732978   0.000000
    25  H    3.710993   2.514809   3.062243   1.070000   0.000000
    26  H    4.262112   3.710993   3.710993   1.070000   1.747303
    27  H    3.710993   3.062243   2.514809   1.070000   1.747303
    28  C    2.732978   2.732978   3.444314   2.514809   2.732978
    29  H    2.514809   3.062243   3.710993   3.444314   3.710993
    30  H    3.710993   3.710993   4.262112   2.732978   3.062243
    31  H    3.062243   2.514809   3.710993   2.732978   2.514809
                   26         27         28         29         30
    26  H    0.000000
    27  H    1.747303   0.000000
    28  C    2.732978   3.444314   0.000000
    29  H    3.710993   4.262112   1.070000   0.000000
    30  H    2.514809   3.710993   1.070000   1.747303   0.000000
    31  H    3.062243   3.710993   1.070000   1.747303   1.747303
                   31
    31  H    0.000000
 Stoichiometry    C13H16O2
 Framework group  C1[X(C13H16O2)]
 Deg. of freedom    87
 Full point group                 C1      NOp   1
 Largest Abelian subgroup         C1      NOp   1
 Largest concise Abelian subgroup C1      NOp   1
                         Standard orientation:                         
 ---------------------------------------------------------------------
 Center     Atomic      Atomic             Coordinates (Angstroms)
 Number     Number       Type             X           Y           Z
 ---------------------------------------------------------------------
      1          6           0        3.517221   -1.729690    0.044674
      2          6           0        4.617711   -0.863842   -0.011473
      3          6           0        4.417084    0.522445   -0.054826
      4          6           0        3.115969    1.042884   -0.042030
      5          6           0        2.015480    0.177036    0.014118
      6          6           0        2.216106   -1.209251    0.057471
      7          1           0        3.670404   -2.788151    0.077774
      8          1           0        5.611141   -1.261208   -0.021243
      9          1           0        5.257332    1.183540   -0.097694
     10          1           0        2.962786    2.101345   -0.075131
     11          1           0        1.375858   -1.870345    0.100344
     12          6           0        0.585682    0.748948    0.028178
     13          8           0        0.380962    2.163526   -0.016062
     14          1           0        1.099967    2.575924   -0.500376
     15          6           0       -0.478527   -0.088356    0.082478
     16          1           0       -0.325344   -1.146817    0.115579
     17          6           0       -1.908324    0.483555    0.096542
     18          8           0       -2.089028    1.723096    0.216776
     19          6           0       -3.116980   -0.461454   -0.036534
     20          6           0       -3.322042   -1.222059    1.286731
     21          1           0       -3.501541   -0.522417    2.076149
     22          1           0       -4.161822   -1.878656    1.194270
     23          1           0       -2.445239   -1.793576    1.509186
     24          6           0       -2.858635   -1.468415   -1.172706
     25          1           0       -3.698415   -2.125012   -1.265167
     26          1           0       -2.716157   -0.939943   -2.092117
     27          1           0       -1.981832   -2.039932   -0.950251
     28          6           0       -4.378920    0.361104   -0.356702
     29          1           0       -4.558419    1.060746    0.432716
     30          1           0       -4.236442    0.889576   -1.276113
     31          1           0       -5.218700   -0.295493   -0.449164
 ---------------------------------------------------------------------
 Rotational constants (GHZ):      1.4025632      0.2760151      0.2431254
 Standard basis: 6-311G (5D, 7F)
 There are   243 symmetry adapted basis functions of A   symmetry.
 Integral buffers will be    262144 words long.
 Raffenetti 1 integral format.
 Two-electron integral symmetry is turned on.
   243 basis functions,   470 primitive gaussians,   243 cartesian basis functions
    55 alpha electrons       55 beta electrons
       nuclear repulsion energy       941.3806022684 Hartrees.
 NAtoms=   31 NActive=   31 NUniq=   31 SFac= 7.50D-01 NAtFMM=   80 NAOKFM=F Big=F
 One-electron integrals computed using PRISM.
 NBasis=   243 RedAO= T  NBF=   243
 NBsUse=   243 1.00D-06 NBFU=   243
 Harris functional with IExCor=  205 diagonalized for initial guess.
 ExpMin= 1.03D-01 ExpMax= 8.59D+03 ExpMxC= 1.30D+03 IAcc=1 IRadAn=         1 AccDes= 0.00D+00
 HarFok:  IExCor=  205 AccDes= 0.00D+00 IRadAn=         1 IDoV= 1
 ScaDFX=  1.000000  1.000000  1.000000  1.000000
 FoFCou: FMM=F IPFlag=           0 FMFlag=      100000 FMFlg1=           0
         NFxFlg=           0 DoJE=T BraDBF=F KetDBF=T FulRan=T
         Omega=  0.000000  0.000000  1.000000  0.000000  0.000000 ICntrl=     500 IOpCl=  0
         NMat0=    1 NMatS0=    1 NMatT0=    0 NMatD0=    1 NMtDS0=    0 NMtDT0=    0
         I1Cent=           4 NGrid=           0.
 Petite list used in FoFCou.
 Initial guess orbital symmetries:
       Occupied  (A) (A) (A) (A) (A) (A) (A) (A) (A) (A) (A) (A)
                 (A) (A) (A) (A) (A) (A) (A) (A) (A) (A) (A) (A)
                 (A) (A) (A) (A) (A) (A) (A) (A) (A) (A) (A) (A)
                 (A) (A) (A) (A) (A) (A) (A) (A) (A) (A) (A) (A)
                 (A) (A) (A) (A) (A) (A) (A)
       Virtual   (A) (A) (A) (A) (A) (A) (A) (A) (A) (A) (A) (A)
                 (A) (A) (A) (A) (A) (A) (A) (A) (A) (A) (A) (A)
                 (A) (A) (A) (A) (A) (A) (A) (A) (A) (A) (A) (A)
                 (A) (A) (A) (A) (A) (A) (A) (A) (A) (A) (A) (A)
                 (A) (A) (A) (A) (A) (A) (A) (A) (A) (A) (A) (A)
                 (A) (A) (A) (A) (A) (A) (A) (A) (A) (A) (A) (A)
                 (A) (A) (A) (A) (A) (A) (A) (A) (A) (A) (A) (A)
                 (A) (A) (A) (A) (A) (A) (A) (A) (A) (A) (A) (A)
                 (A) (A) (A) (A) (A) (A) (A) (A) (A) (A) (A) (A)
                 (A) (A) (A) (A) (A) (A) (A) (A) (A) (A) (A) (A)
                 (A) (A) (A) (A) (A) (A) (A) (A) (A) (A) (A) (A)
                 (A) (A) (A) (A) (A) (A) (A) (A) (A) (A) (A) (A)
                 (A) (A) (A) (A) (A) (A) (A) (A) (A) (A) (A) (A)
                 (A) (A) (A) (A) (A) (A) (A) (A) (A) (A) (A) (A)
                 (A) (A) (A) (A) (A) (A) (A) (A) (A) (A) (A) (A)
                 (A) (A) (A) (A) (A) (A) (A) (A)
 The electronic state of the initial guess is 1-A.
 Requested convergence on RMS density matrix=1.00D-08 within 128 cycles.
 Requested convergence on MAX density matrix=1.00D-06.
 Requested convergence on             energy=1.00D-06.
 No special actions if energy rises.
 Integral accuracy reduced to 1.0D-05 until final iterations.
 Initial convergence to 1.0D-05 achieved.  Increase integral accuracy.
 SCF Done:  E(RHF) =  -651.154978510     A.U. after   17 cycles
             Convg  =    0.7036D-08             -V/T =  2.0002
 Range of M.O.s used for correlation:     1   243
 NBasis=   243 NAE=    55 NBE=    55 NFC=     0 NFV=     0
 NROrb=    243 NOA=    55 NOB=    55 NVA=   188 NVB=   188

 **** Warning!!: The largest alpha MO coefficient is  0.14767560D+02

          Differentiating once with respect to electric field.
                with respect to dipole field.
          Electric field/nuclear overlap derivatives assumed to be zero.
          There are     3 degrees of freedom in the 1st order CPHF.  IDoFFX=0.
      3 vectors produced by pass  0 Test12= 3.45D-13 3.33D-08 XBig12= 6.35D+01 5.00D+00.
 AX will form     3 AO Fock derivatives at one time.
      3 vectors produced by pass  1 Test12= 3.45D-13 3.33D-08 XBig12= 5.78D+00 7.03D-01.
      3 vectors produced by pass  2 Test12= 3.45D-13 3.33D-08 XBig12= 8.78D-01 2.98D-01.
      3 vectors produced by pass  3 Test12= 3.45D-13 3.33D-08 XBig12= 8.52D-02 8.54D-02.
      3 vectors produced by pass  4 Test12= 3.45D-13 3.33D-08 XBig12= 1.50D-02 2.72D-02.
      3 vectors produced by pass  5 Test12= 3.45D-13 3.33D-08 XBig12= 1.30D-03 9.82D-03.
      3 vectors produced by pass  6 Test12= 3.45D-13 3.33D-08 XBig12= 1.71D-04 3.86D-03.
      3 vectors produced by pass  7 Test12= 3.45D-13 3.33D-08 XBig12= 1.42D-05 7.75D-04.
      3 vectors produced by pass  8 Test12= 3.45D-13 3.33D-08 XBig12= 8.31D-07 2.45D-04.
      3 vectors produced by pass  9 Test12= 3.45D-13 3.33D-08 XBig12= 4.47D-08 3.52D-05.
      3 vectors produced by pass 10 Test12= 3.45D-13 3.33D-08 XBig12= 4.69D-09 1.20D-05.
      3 vectors produced by pass 11 Test12= 3.45D-13 3.33D-08 XBig12= 2.64D-10 4.40D-06.
      3 vectors produced by pass 12 Test12= 3.45D-13 3.33D-08 XBig12= 1.50D-11 8.25D-07.
      2 vectors produced by pass 13 Test12= 3.45D-13 3.33D-08 XBig12= 1.15D-12 1.52D-07.
      1 vectors produced by pass 14 Test12= 3.45D-13 3.33D-08 XBig12= 7.24D-14 3.36D-08.
 Inverted reduced A of dimension    42 with in-core refinement.
 End of Minotr Frequency-dependent properties file   721 does not exist.
 End of Minotr Frequency-dependent properties file   722 does not exist.
 Symmetrizing basis deriv contribution to polar:
 IMax=3 JMax=2 DiffMx= 0.00D+00
 G2DrvN: will do    32 centers at a time, making    1 passes doing MaxLOS=1.
 Calling FoFCou, ICntrl=  3107 FMM=F I1Cent=   0 AccDes= 0.00D+00.
 FoFDir/FoFCou used for L=0 through L=1.
 End of G2Drv Frequency-dependent properties file   721 does not exist.
 End of G2Drv Frequency-dependent properties file   722 does not exist.
          IDoAtm=1111111111111111111111111111111
          Differentiating once with respect to electric field.
                with respect to dipole field.
          Differentiating once with respect to nuclear coordinates.
          There are    96 degrees of freedom in the 1st order CPHF.  IDoFFX=5.
 Will reuse    3 saved solutions.
     90 vectors produced by pass  0 Test12= 1.08D-14 1.04D-09 XBig12= 1.15D-01 9.88D-02.
 AX will form    90 AO Fock derivatives at one time.
     90 vectors produced by pass  1 Test12= 1.08D-14 1.04D-09 XBig12= 1.20D-02 2.21D-02.
     90 vectors produced by pass  2 Test12= 1.08D-14 1.04D-09 XBig12= 8.42D-05 2.02D-03.
     90 vectors produced by pass  3 Test12= 1.08D-14 1.04D-09 XBig12= 7.87D-07 1.26D-04.
     90 vectors produced by pass  4 Test12= 1.08D-14 1.04D-09 XBig12= 5.34D-09 1.01D-05.
     90 vectors produced by pass  5 Test12= 1.08D-14 1.04D-09 XBig12= 3.07D-11 6.37D-07.
     81 vectors produced by pass  6 Test12= 1.08D-14 1.04D-09 XBig12= 1.70D-13 3.78D-08.
     19 vectors produced by pass  7 Test12= 1.08D-14 1.04D-09 XBig12= 8.02D-16 2.43D-09.
 Inverted reduced A of dimension   640 with in-core refinement.
 Isotropic polarizability for W=    0.000000      142.72 Bohr**3.
 End of Minotr Frequency-dependent properties file   721 does not exist.
 End of Minotr Frequency-dependent properties file   722 does not exist.

 **********************************************************************

            Population analysis using the SCF density.

 **********************************************************************

 Orbital symmetries:
       Occupied  (A) (A) (A) (A) (A) (A) (A) (A) (A) (A) (A) (A)
                 (A) (A) (A) (A) (A) (A) (A) (A) (A) (A) (A) (A)
                 (A) (A) (A) (A) (A) (A) (A) (A) (A) (A) (A) (A)
                 (A) (A) (A) (A) (A) (A) (A) (A) (A) (A) (A) (A)
                 (A) (A) (A) (A) (A) (A) (A)
       Virtual   (A) (A) (A) (A) (A) (A) (A) (A) (A) (A) (A) (A)
                 (A) (A) (A) (A) (A) (A) (A) (A) (A) (A) (A) (A)
                 (A) (A) (A) (A) (A) (A) (A) (A) (A) (A) (A) (A)
                 (A) (A) (A) (A) (A) (A) (A) (A) (A) (A) (A) (A)
                 (A) (A) (A) (A) (A) (A) (A) (A) (A) (A) (A) (A)
                 (A) (A) (A) (A) (A) (A) (A) (A) (A) (A) (A) (A)
                 (A) (A) (A) (A) (A) (A) (A) (A) (A) (A) (A) (A)
                 (A) (A) (A) (A) (A) (A) (A) (A) (A) (A) (A) (A)
                 (A) (A) (A) (A) (A) (A) (A) (A) (A) (A) (A) (A)
                 (A) (A) (A) (A) (A) (A) (A) (A) (A) (A) (A) (A)
                 (A) (A) (A) (A) (A) (A) (A) (A) (A) (A) (A) (A)
                 (A) (A) (A) (A) (A) (A) (A) (A) (A) (A) (A) (A)
                 (A) (A) (A) (A) (A) (A) (A) (A) (A) (A) (A) (A)
                 (A) (A) (A) (A) (A) (A) (A) (A) (A) (A) (A) (A)
                 (A) (A) (A) (A) (A) (A) (A) (A) (A) (A) (A) (A)
                 (A) (A) (A) (A) (A) (A) (A) (A)
 The electronic state is 1-A.
 Alpha  occ. eigenvalues --  -20.59077 -20.52813 -11.34974 -11.33730 -11.28795
 Alpha  occ. eigenvalues --  -11.27004 -11.26815 -11.26597 -11.26553 -11.26384
 Alpha  occ. eigenvalues --  -11.25228 -11.24784 -11.21669 -11.21663 -11.19961
 Alpha  occ. eigenvalues --   -1.39640  -1.35507  -1.18304  -1.11104  -1.08406
 Alpha  occ. eigenvalues --   -1.04446  -1.02227  -0.95088  -0.94021  -0.88762
 Alpha  occ. eigenvalues --   -0.85991  -0.84070  -0.78196  -0.75822  -0.70828
 Alpha  occ. eigenvalues --   -0.68398  -0.65721  -0.65272  -0.64851  -0.62263
 Alpha  occ. eigenvalues --   -0.61893  -0.60999  -0.59960  -0.58430  -0.57529
 Alpha  occ. eigenvalues --   -0.56003  -0.55030  -0.54149  -0.52439  -0.52333
 Alpha  occ. eigenvalues --   -0.51843  -0.51082  -0.50605  -0.49032  -0.45705
 Alpha  occ. eigenvalues --   -0.45082  -0.39831  -0.38411  -0.36017  -0.32281
 Alpha virt. eigenvalues --    0.06319   0.10854   0.13255   0.14975   0.15190
 Alpha virt. eigenvalues --    0.15948   0.17124   0.18776   0.20486   0.20873
 Alpha virt. eigenvalues --    0.21207   0.22592   0.23085   0.23994   0.25934
 Alpha virt. eigenvalues --    0.26305   0.27756   0.28033   0.29962   0.30599
 Alpha virt. eigenvalues --    0.33303   0.34158   0.34978   0.35435   0.37443
 Alpha virt. eigenvalues --    0.38733   0.40696   0.41044   0.42904   0.43856
 Alpha virt. eigenvalues --    0.44709   0.45085   0.46731   0.47262   0.49799
 Alpha virt. eigenvalues --    0.51250   0.53454   0.54796   0.55439   0.55799
 Alpha virt. eigenvalues --    0.56880   0.57518   0.58999   0.59350   0.59801
 Alpha virt. eigenvalues --    0.60801   0.61029   0.61706   0.62520   0.62907
 Alpha virt. eigenvalues --    0.63741   0.65309   0.65628   0.67429   0.68930
 Alpha virt. eigenvalues --    0.69434   0.70940   0.73168   0.74356   0.76722
 Alpha virt. eigenvalues --    0.77775   0.78820   0.79727   0.80286   0.80715
 Alpha virt. eigenvalues --    0.81409   0.81694   0.82133   0.82224   0.83057
 Alpha virt. eigenvalues --    0.83563   0.85262   0.85712   0.86248   0.86596
 Alpha virt. eigenvalues --    0.86905   0.87613   0.89352   0.90315   0.90498
 Alpha virt. eigenvalues --    0.91729   0.91900   0.92914   0.93956   0.95721
 Alpha virt. eigenvalues --    0.96291   1.01005   1.01758   1.04297   1.07959
 Alpha virt. eigenvalues --    1.08593   1.09927   1.11359   1.11635   1.14920
 Alpha virt. eigenvalues --    1.16211   1.16533   1.18340   1.19860   1.23319
 Alpha virt. eigenvalues --    1.23913   1.26660   1.26808   1.31318   1.35850
 Alpha virt. eigenvalues --    1.38158   1.42012   1.47879   1.50437   1.62659
 Alpha virt. eigenvalues --    1.93699   2.03245   2.47002   2.52302   2.55598
 Alpha virt. eigenvalues --    2.59594   2.60400   2.61655   2.62818   2.63701
 Alpha virt. eigenvalues --    2.65237   2.66453   2.68213   2.68412   2.68952
 Alpha virt. eigenvalues --    2.70660   2.79915   2.88502   2.89053   2.91701
 Alpha virt. eigenvalues --    2.93882   2.96302   3.02292   3.04263   3.07231
 Alpha virt. eigenvalues --    3.09408   3.12560   3.17526   3.20815   3.21633
 Alpha virt. eigenvalues --    3.22926   3.26198   3.26733   3.28209   3.29542
 Alpha virt. eigenvalues --    3.30036   3.30497   3.32658   3.33532   3.36675
 Alpha virt. eigenvalues --    3.38843   3.41373   3.43495   3.46195   3.48969
 Alpha virt. eigenvalues --    3.50344   3.52988   3.55428   3.57553   3.60086
 Alpha virt. eigenvalues --    3.61226   3.63150   3.65059   3.67982   3.71707
 Alpha virt. eigenvalues --    3.74487   3.87644   5.37352   5.45629   5.46669
 Alpha virt. eigenvalues --    5.53006   5.60692   5.75029  24.24560  24.40593
 Alpha virt. eigenvalues --   24.48584  24.50056  24.55396  24.62541  24.68439
 Alpha virt. eigenvalues --   24.71942  24.75087  24.77668  24.78989  24.84103
 Alpha virt. eigenvalues --   25.00644  51.56562  51.63360
          Condensed to atoms (all electrons):
              1          2          3          4          5          6
     1  C    5.046638   0.493260  -0.073357  -0.028839  -0.062041   0.466677
     2  C    0.493260   5.000132   0.505528  -0.094519  -0.010132  -0.094900
     3  C   -0.073357   0.505528   5.031406   0.446857  -0.060429  -0.027450
     4  C   -0.028839  -0.094519   0.446857   5.180680   0.388336  -0.072204
     5  C   -0.062041  -0.010132  -0.060429   0.388336   5.632612   0.476604
     6  C    0.466677  -0.094900  -0.027450  -0.072204   0.476604   5.032261
     7  H    0.397365  -0.038145   0.005408  -0.000231   0.005934  -0.035668
     8  H   -0.041898   0.399056  -0.041359   0.007882  -0.001592   0.007759
     9  H    0.005504  -0.037190   0.397217  -0.036127   0.005353  -0.000290
    10  H   -0.000083   0.004632  -0.018406   0.394086  -0.070635   0.003237
    11  H   -0.029734   0.004551  -0.000240   0.004225  -0.044153   0.387905
    12  C    0.008044   0.000550   0.012207  -0.046498   0.026461  -0.022630
    13  O   -0.000029  -0.000025   0.001123   0.007697  -0.119044   0.002378
    14  H   -0.000007  -0.000008  -0.000235   0.000672  -0.002524   0.000397
    15  C    0.000368   0.000040  -0.000417   0.013691  -0.127101  -0.004040
    16  H    0.000608  -0.000048   0.000038   0.000798  -0.011447  -0.001332
    17  C   -0.000060   0.000001   0.000007  -0.000441   0.013759  -0.000293
    18  O    0.000000   0.000000   0.000000   0.000037  -0.000004  -0.000034
    19  C    0.000000   0.000000   0.000000   0.000012  -0.000754  -0.000006
    20  C    0.000000   0.000000   0.000000   0.000000  -0.000019   0.000002
    21  H    0.000000   0.000000   0.000000   0.000000   0.000002   0.000001
    22  H    0.000000   0.000000   0.000000   0.000000   0.000000  -0.000001
    23  H    0.000001   0.000000   0.000000  -0.000001  -0.000009   0.000007
    24  C    0.000000   0.000000   0.000000  -0.000001  -0.000083   0.000035
    25  H    0.000000   0.000000   0.000000   0.000000   0.000002  -0.000003
    26  H    0.000000   0.000000   0.000000   0.000000   0.000021  -0.000015
    27  H    0.000005   0.000000   0.000000  -0.000002  -0.000088   0.000115
    28  C    0.000000   0.000000   0.000000   0.000000   0.000000   0.000001
    29  H    0.000000   0.000000   0.000000   0.000000  -0.000001   0.000000
    30  H    0.000000   0.000000   0.000000   0.000000   0.000000   0.000000
    31  H    0.000000   0.000000   0.000000   0.000000   0.000000   0.000000
              7          8          9         10         11         12
     1  C    0.397365  -0.041898   0.005504  -0.000083  -0.029734   0.008044
     2  C   -0.038145   0.399056  -0.037190   0.004632   0.004551   0.000550
     3  C    0.005408  -0.041359   0.397217  -0.018406  -0.000240   0.012207
     4  C   -0.000231   0.007882  -0.036127   0.394086   0.004225  -0.046498
     5  C    0.005934  -0.001592   0.005353  -0.070635  -0.044153   0.026461
     6  C   -0.035668   0.007759  -0.000290   0.003237   0.387905  -0.022630
     7  H    0.502061  -0.003924  -0.000198   0.000025  -0.003331  -0.000292
     8  H   -0.003924   0.505851  -0.003915  -0.000172  -0.000155  -0.000048
     9  H   -0.000198  -0.003915   0.501578  -0.003600   0.000012  -0.000292
    10  H    0.000025  -0.000172  -0.003600   0.507405  -0.000244   0.001848
    11  H   -0.003331  -0.000155   0.000012  -0.000244   0.494748  -0.003786
    12  C   -0.000292  -0.000048  -0.000292   0.001848  -0.003786   5.034548
    13  O    0.000001   0.000000  -0.000012   0.004436  -0.000222   0.311066
    14  H    0.000000   0.000000   0.000009   0.002234   0.000019  -0.029623
    15  C    0.000068   0.000000   0.000006   0.001875   0.005160   0.361594
    16  H    0.000017  -0.000001   0.000001   0.000016   0.000533  -0.043017
    17  C    0.000000   0.000000   0.000000  -0.000046   0.000547  -0.009375
    18  O    0.000000   0.000000   0.000000   0.000010  -0.000018   0.015423
    19  C    0.000000   0.000000   0.000000   0.000001  -0.000138   0.005289
    20  C    0.000000   0.000000   0.000000   0.000000  -0.000025  -0.000083
    21  H    0.000000   0.000000   0.000000   0.000000   0.000000  -0.000027
    22  H    0.000000   0.000000   0.000000   0.000000   0.000000   0.000025
    23  H    0.000000   0.000000   0.000000   0.000000   0.000034   0.000259
    24  C    0.000000   0.000000   0.000000   0.000000   0.000110   0.000144
    25  H    0.000000   0.000000   0.000000   0.000000  -0.000001  -0.000010
    26  H    0.000000   0.000000   0.000000   0.000000  -0.000016   0.000005
    27  H   -0.000001   0.000000   0.000000   0.000000   0.000486   0.000891
    28  C    0.000000   0.000000   0.000000   0.000000   0.000004  -0.000357
    29  H    0.000000   0.000000   0.000000   0.000000   0.000000  -0.000077
    30  H    0.000000   0.000000   0.000000   0.000000   0.000000  -0.000040
    31  H    0.000000   0.000000   0.000000   0.000000   0.000000   0.000014
             13         14         15         16         17         18
     1  C   -0.000029  -0.000007   0.000368   0.000608  -0.000060   0.000000
     2  C   -0.000025  -0.000008   0.000040  -0.000048   0.000001   0.000000
     3  C    0.001123  -0.000235  -0.000417   0.000038   0.000007   0.000000
     4  C    0.007697   0.000672   0.013691   0.000798  -0.000441   0.000037
     5  C   -0.119044  -0.002524  -0.127101  -0.011447   0.013759  -0.000004
     6  C    0.002378   0.000397  -0.004040  -0.001332  -0.000293  -0.000034
     7  H    0.000001   0.000000   0.000068   0.000017   0.000000   0.000000
     8  H    0.000000   0.000000   0.000000  -0.000001   0.000000   0.000000
     9  H   -0.000012   0.000009   0.000006   0.000001   0.000000   0.000000
    10  H    0.004436   0.002234   0.001875   0.000016  -0.000046   0.000010
    11  H   -0.000222   0.000019   0.005160   0.000533   0.000547  -0.000018
    12  C    0.311066  -0.029623   0.361594  -0.043017  -0.009375   0.015423
    13  O    8.357833   0.259914  -0.120844   0.003752   0.006983  -0.025160
    14  H    0.259914   0.379672   0.004548  -0.000275  -0.000102   0.001030
    15  C   -0.120844   0.004548   6.017633   0.369653   0.050605  -0.139559
    16  H    0.003752  -0.000275   0.369653   0.477971  -0.027792   0.002724
    17  C    0.006983  -0.000102   0.050605  -0.027792   5.136300   0.598026
    18  O   -0.025160   0.001030  -0.139559   0.002724   0.598026   8.143703
    19  C   -0.000422   0.000035  -0.171249   0.009581  -0.012322  -0.131776
    20  C   -0.000003   0.000000   0.006462  -0.000092  -0.110612   0.001112
    21  H    0.000005  -0.000001  -0.000070  -0.000041  -0.000919   0.002061
    22  H    0.000000   0.000000  -0.000688   0.000040   0.007645  -0.000308
    23  H   -0.000005   0.000001   0.004387   0.001005  -0.006061  -0.000064
    24  C    0.000021  -0.000003   0.010770  -0.002544  -0.093871   0.003632
    25  H   -0.000001   0.000000  -0.000587   0.000099   0.008439  -0.000248
    26  H   -0.000006  -0.000005  -0.000875   0.000241  -0.001545   0.000302
    27  H   -0.000012   0.000003   0.005027  -0.001025  -0.007140  -0.000084
    28  C    0.000010   0.000001   0.011153  -0.000294  -0.081795   0.012219
    29  H    0.000005  -0.000001   0.001034  -0.000033  -0.005798   0.006467
    30  H   -0.000002   0.000002   0.000276  -0.000036  -0.004631   0.002745
    31  H    0.000000   0.000000  -0.000382   0.000015   0.013156   0.000256
             19         20         21         22         23         24
     1  C    0.000000   0.000000   0.000000   0.000000   0.000001   0.000000
     2  C    0.000000   0.000000   0.000000   0.000000   0.000000   0.000000
     3  C    0.000000   0.000000   0.000000   0.000000   0.000000   0.000000
     4  C    0.000012   0.000000   0.000000   0.000000  -0.000001  -0.000001
     5  C   -0.000754  -0.000019   0.000002   0.000000  -0.000009  -0.000083
     6  C   -0.000006   0.000002   0.000001  -0.000001   0.000007   0.000035
     7  H    0.000000   0.000000   0.000000   0.000000   0.000000   0.000000
     8  H    0.000000   0.000000   0.000000   0.000000   0.000000   0.000000
     9  H    0.000000   0.000000   0.000000   0.000000   0.000000   0.000000
    10  H    0.000001   0.000000   0.000000   0.000000   0.000000   0.000000
    11  H   -0.000138  -0.000025   0.000000   0.000000   0.000034   0.000110
    12  C    0.005289  -0.000083  -0.000027   0.000025   0.000259   0.000144
    13  O   -0.000422  -0.000003   0.000005   0.000000  -0.000005   0.000021
    14  H    0.000035   0.000000  -0.000001   0.000000   0.000001  -0.000003
    15  C   -0.171249   0.006462  -0.000070  -0.000688   0.004387   0.010770
    16  H    0.009581  -0.000092  -0.000041   0.000040   0.001005  -0.002544
    17  C   -0.012322  -0.110612  -0.000919   0.007645  -0.006061  -0.093871
    18  O   -0.131776   0.001112   0.002061  -0.000308  -0.000064   0.003632
    19  C    6.459439   0.212014  -0.046912  -0.040193  -0.046894   0.171189
    20  C    0.212014   5.396812   0.387335   0.389066   0.381615  -0.111032
    21  H   -0.046912   0.387335   0.514307  -0.025840  -0.025478   0.009451
    22  H   -0.040193   0.389066  -0.025840   0.524784  -0.026890  -0.006032
    23  H   -0.046894   0.381615  -0.025478  -0.026890   0.547665  -0.003548
    24  C    0.171189  -0.111032   0.009451  -0.006032  -0.003548   5.423083
    25  H   -0.038809  -0.006160  -0.000190   0.003938  -0.000171   0.384392
    26  H   -0.047977   0.008978  -0.000339  -0.000163  -0.000251   0.389918
    27  H   -0.045131  -0.003380  -0.000272  -0.000150   0.002618   0.377809
    28  C    0.196746  -0.101202  -0.003239  -0.004530   0.008557  -0.107699
    29  H   -0.041546  -0.003126   0.003269  -0.000358  -0.000126   0.008481
    30  H   -0.043659   0.008616  -0.000210  -0.000107  -0.000382  -0.003542
    31  H   -0.055905  -0.005931  -0.000550   0.002173  -0.000104  -0.005331
             25         26         27         28         29         30
     1  C    0.000000   0.000000   0.000005   0.000000   0.000000   0.000000
     2  C    0.000000   0.000000   0.000000   0.000000   0.000000   0.000000
     3  C    0.000000   0.000000   0.000000   0.000000   0.000000   0.000000
     4  C    0.000000   0.000000  -0.000002   0.000000   0.000000   0.000000
     5  C    0.000002   0.000021  -0.000088   0.000000  -0.000001   0.000000
     6  C   -0.000003  -0.000015   0.000115   0.000001   0.000000   0.000000
     7  H    0.000000   0.000000  -0.000001   0.000000   0.000000   0.000000
     8  H    0.000000   0.000000   0.000000   0.000000   0.000000   0.000000
     9  H    0.000000   0.000000   0.000000   0.000000   0.000000   0.000000
    10  H    0.000000   0.000000   0.000000   0.000000   0.000000   0.000000
    11  H   -0.000001  -0.000016   0.000486   0.000004   0.000000   0.000000
    12  C   -0.000010   0.000005   0.000891  -0.000357  -0.000077  -0.000040
    13  O   -0.000001  -0.000006  -0.000012   0.000010   0.000005  -0.000002
    14  H    0.000000  -0.000005   0.000003   0.000001  -0.000001   0.000002
    15  C   -0.000587  -0.000875   0.005027   0.011153   0.001034   0.000276
    16  H    0.000099   0.000241  -0.001025  -0.000294  -0.000033  -0.000036
    17  C    0.008439  -0.001545  -0.007140  -0.081795  -0.005798  -0.004631
    18  O   -0.000248   0.000302  -0.000084   0.012219   0.006467   0.002745
    19  C   -0.038809  -0.047977  -0.045131   0.196746  -0.041546  -0.043659
    20  C   -0.006160   0.008978  -0.003380  -0.101202  -0.003126   0.008616
    21  H   -0.000190  -0.000339  -0.000272  -0.003239   0.003269  -0.000210
    22  H    0.003938  -0.000163  -0.000150  -0.004530  -0.000358  -0.000107
    23  H   -0.000171  -0.000251   0.002618   0.008557  -0.000126  -0.000382
    24  C    0.384392   0.389918   0.377809  -0.107699   0.008481  -0.003542
    25  H    0.528411  -0.026532  -0.026586  -0.003284  -0.000125  -0.000337
    26  H   -0.026532   0.525446  -0.027443  -0.002786  -0.000155   0.003203
    27  H   -0.026586  -0.027443   0.561664   0.008706  -0.000372  -0.000130
    28  C   -0.003284  -0.002786   0.008706   5.319156   0.390587   0.391407
    29  H   -0.000125  -0.000155  -0.000372   0.390587   0.499172  -0.020846
    30  H   -0.000337   0.003203  -0.000130   0.391407  -0.020846   0.523482
    31  H    0.002560  -0.000423  -0.000078   0.390146  -0.029989  -0.030932
             31
     1  C    0.000000
     2  C    0.000000
     3  C    0.000000
     4  C    0.000000
     5  C    0.000000
     6  C    0.000000
     7  H    0.000000
     8  H    0.000000
     9  H    0.000000
    10  H    0.000000
    11  H    0.000000
    12  C    0.000014
    13  O    0.000000
    14  H    0.000000
    15  C   -0.000382
    16  H    0.000015
    17  C    0.013156
    18  O    0.000256
    19  C   -0.055905
    20  C   -0.005931
    21  H   -0.000550
    22  H    0.002173
    23  H   -0.000104
    24  C   -0.005331
    25  H    0.002560
    26  H   -0.000423
    27  H   -0.000078
    28  C    0.390146
    29  H   -0.029989
    30  H   -0.030932
    31  H    0.564918
 Mulliken atomic charges:
              1
     1  C   -0.182421
     2  C   -0.132785
     3  C   -0.177898
     4  C   -0.166111
     5  C   -0.039030
     6  C   -0.118515
     7  H    0.170912
     8  H    0.172515
     9  H    0.171942
    10  H    0.173381
    11  H    0.183727
    12  C    0.377786
    13  O   -0.689441
    14  H    0.384252
    15  C   -0.298539
    16  H    0.220882
    17  C    0.527334
    18  O   -0.492492
    19  C   -0.330614
    20  C   -0.450348
    21  H    0.187659
    22  H    0.177587
    23  H    0.163834
    24  C   -0.445350
    25  H    0.175205
    26  H    0.180418
    27  H    0.154570
    28  C   -0.423506
    29  H    0.193537
    30  H    0.175122
    31  H    0.156386
 Sum of Mulliken atomic charges =   0.00000
 Mulliken charges with hydrogens summed into heavy atoms:
              1
     1  C   -0.011509
     2  C    0.039730
     3  C   -0.005956
     4  C    0.007270
     5  C   -0.039030
     6  C    0.065212
    12  C    0.377786
    13  O   -0.305189
    15  C   -0.077657
    17  C    0.527334
    18  O   -0.492492
    19  C   -0.330614
    20  C    0.078732
    24  C    0.064844
    28  C    0.101539
 Sum of Mulliken charges with hydrogens summed into heavy atoms =   0.00000
 APT atomic charges:
              1
     1  C   -0.009761
     2  C   -0.046181
     3  C   -0.018675
     4  C   -0.068525
     5  C   -0.005918
     6  C   -0.097234
     7  H    0.032704
     8  H    0.033164
     9  H    0.028993
    10  H    0.051040
    11  H    0.056885
    12  C    0.721712
    13  O   -0.615979
    14  H    0.330688
    15  C   -0.691813
    16  H    0.070386
    17  C    0.968249
    18  O   -0.772933
    19  C    0.062577
    20  C    0.053226
    21  H   -0.006954
    22  H   -0.030136
    23  H   -0.024618
    24  C    0.042441
    25  H   -0.030543
    26  H   -0.011068
    27  H   -0.027076
    28  C    0.050749
    29  H    0.009274
    30  H   -0.012187
    31  H   -0.042486
 Sum of APT charges=   0.00000
 APT Atomic charges with hydrogens summed into heavy atoms:
              1
     1  C    0.022943
     2  C   -0.013017
     3  C    0.010319
     4  C   -0.017485
     5  C   -0.005918
     6  C   -0.040349
     7  H    0.000000
     8  H    0.000000
     9  H    0.000000
    10  H    0.000000
    11  H    0.000000
    12  C    0.721712
    13  O   -0.285291
    14  H    0.000000
    15  C   -0.621428
    16  H    0.000000
    17  C    0.968249
    18  O   -0.772933
    19  C    0.062577
    20  C   -0.008482
    21  H    0.000000
    22  H    0.000000
    23  H    0.000000
    24  C   -0.026246
    25  H    0.000000
    26  H    0.000000
    27  H    0.000000
    28  C    0.005349
    29  H    0.000000
    30  H    0.000000
    31  H    0.000000
 Sum of APT charges=   0.00000
 Electronic spatial extent (au):  <R**2>=           4496.5275
 Charge=              0.0000 electrons
 Dipole moment (field-independent basis, Debye):
    X=              3.7744    Y=             -3.7446    Z=             -1.1810  Tot=              5.4464
 Quadrupole moment (field-independent basis, Debye-Ang):
   XX=            -78.2120   YY=            -91.7578   ZZ=            -95.8997
   XY=             10.7883   XZ=             -0.8082   YZ=             -4.0817
 Traceless Quadrupole moment (field-independent basis, Debye-Ang):
   XX=             10.4111   YY=             -3.1346   ZZ=             -7.2765
   XY=             10.7883   XZ=             -0.8082   YZ=             -4.0817
 Octapole moment (field-independent basis, Debye-Ang**2):
  XXX=             48.4508  YYY=              0.0301  ZZZ=             -0.7006  XYY=             37.7672
  XXY=            -10.8876  XXZ=             -2.0498  XZZ=            -20.3068  YZZ=              9.8352
  YYZ=             -8.3172  XYZ=             -2.7432
 Hexadecapole moment (field-independent basis, Debye-Ang**3):
 XXXX=          -4624.3786 YYYY=           -861.1248 ZZZZ=           -283.3852 XXXY=             29.8917
 XXXZ=            -15.6542 YYYX=             37.2145 YYYZ=            -26.6580 ZZZX=             -1.9283
 ZZZY=             -1.3200 XXYY=           -936.9174 XXZZ=           -948.6204 YYZZ=           -202.9037
 XXYZ=             -7.5023 YYXZ=             -5.2492 ZZXY=             -0.6534
 N-N= 9.413806022684D+02 E-N=-3.404394762356D+03  KE= 6.509959135916D+02
  Exact polarizability: 206.866   1.451 141.059  -2.775  -1.995  80.239
 Approx polarizability: 153.927   1.962 144.319  -2.870  -1.704  77.085
 Calling FoFJK, ICntrl=    100127 FMM=F ISym2X=0 I1Cent= 0 IOpClX= 0 NMat=1 NMatS=1 NMatT=0.
 Full mass-weighted force constant matrix:
 Low frequencies --- -192.4461 -105.6822  -98.0214  -32.8494   -0.0007   -0.0005
 Low frequencies ---    0.0006    6.8559   61.4159
 ******    3 imaginary frequencies (negative Signs) ****** 
 Diagonal vibrational polarizability:
       32.6494802      11.9084733      25.0577301
 Diagonal vibrational hyperpolarizability:
      238.2437791     -28.3570223     -54.8359138
 Harmonic frequencies (cm**-1), IR intensities (KM/Mole), Raman scattering
 activities (A**4/AMU), depolarization ratios for plane and unpolarized
 incident light, reduced masses (AMU), force constants (mDyne/A),
 and normal coordinates:
                     1                      2                      3
                     A                      A                      A
 Frequencies --  -188.5811               -93.3689               -79.0431
 Red. masses --     1.0729                 1.3908                 1.2031
 Frc consts  --     0.0225                 0.0071                 0.0044
 IR Inten    --     0.0395                 0.3877                 0.4854
 Raman Activ --     0.0830                 0.2921                 0.8041
 Depolar (P) --     0.5937                 0.7415                 0.7428
 Depolar (U) --     0.7450                 0.8516                 0.8524
  Atom  AN      X      Y      Z        X      Y      Z        X      Y      Z
     1   6     0.00   0.00  -0.02     0.02   0.01  -0.01    -0.01  -0.01   0.03
     2   6     0.00   0.00  -0.01     0.01   0.02  -0.02    -0.01  -0.01   0.00
     3   6     0.00   0.00   0.00     0.00   0.02  -0.02     0.00  -0.02  -0.03
     4   6     0.00   0.00   0.00    -0.01   0.01  -0.02     0.00  -0.01  -0.04
     5   6     0.00   0.00   0.00     0.00   0.00  -0.01     0.00   0.00  -0.01
     6   6     0.00   0.00  -0.02     0.01   0.00  -0.01    -0.01   0.00   0.02
     7   1     0.00   0.00  -0.03     0.03   0.01   0.00    -0.02  -0.01   0.05
     8   1     0.00   0.00  -0.02     0.01   0.03  -0.02    -0.01  -0.02   0.00
     9   1     0.00   0.00   0.00    -0.01   0.03  -0.03     0.00  -0.02  -0.05
    10   1     0.00   0.00   0.01    -0.01   0.01  -0.02     0.01  -0.01  -0.06
    11   1     0.00   0.00  -0.02     0.02   0.00   0.00    -0.01   0.00   0.04
    12   6     0.00   0.00   0.00     0.00  -0.01   0.00     0.00   0.01   0.00
    13   8     0.00   0.00   0.02    -0.01  -0.01  -0.01     0.00   0.01  -0.04
    14   1     0.00   0.00   0.02    -0.01  -0.02  -0.02     0.00   0.00  -0.05
    15   6     0.00   0.00   0.00     0.00  -0.02   0.02     0.00   0.01   0.04
    16   1    -0.01   0.00  -0.02     0.00  -0.02   0.02     0.00   0.02   0.07
    17   6     0.00   0.00   0.01     0.01  -0.02   0.04     0.00   0.01   0.04
    18   8     0.00   0.00   0.02     0.01  -0.02   0.06    -0.01   0.01   0.03
    19   6     0.00   0.00   0.00     0.00   0.00   0.00     0.01   0.00   0.01
    20   6    -0.02   0.02   0.01    -0.10   0.02   0.00    -0.01  -0.03  -0.01
    21   1    -0.41   0.01  -0.08     0.16   0.04   0.04    -0.35  -0.05  -0.07
    22   1     0.21  -0.26  -0.12    -0.30   0.27   0.05     0.18  -0.26  -0.15
    23   1     0.11   0.32   0.23    -0.25  -0.24  -0.10     0.10   0.22   0.16
    24   6     0.03  -0.01   0.02     0.03  -0.03   0.04     0.06   0.03  -0.01
    25   1    -0.09   0.17  -0.19    -0.12   0.20  -0.21     0.09  -0.02  -0.02
    26   1     0.35  -0.01   0.07     0.43  -0.04   0.09     0.02   0.05   0.00
    27   1    -0.14  -0.21   0.20    -0.18  -0.26   0.27     0.09   0.08  -0.03
    28   6     0.00  -0.01  -0.03     0.04   0.04  -0.07     0.00  -0.01  -0.01
    29   1     0.14   0.18  -0.17    -0.08  -0.07   0.00    -0.26  -0.31   0.19
    30   1    -0.08  -0.23  -0.18     0.18   0.17   0.02     0.17   0.33   0.22
    31   1    -0.04   0.02   0.22     0.05   0.05  -0.29     0.09  -0.07  -0.45
                     4                      5                      6
                     A                      A                      A
 Frequencies --    35.0508                67.7386               109.9014
 Red. masses --     2.2667                 4.1175                 2.1712
 Frc consts  --     0.0016                 0.0111                 0.0155
 IR Inten    --     0.0610                 0.3961                 0.9151
 Raman Activ --     2.5072                 1.3421                 1.5983
 Depolar (P) --     0.7481                 0.7488                 0.7500
 Depolar (U) --     0.8559                 0.8563                 0.8571
  Atom  AN      X      Y      Z        X      Y      Z        X      Y      Z
     1   6     0.01   0.01   0.14     0.01   0.00  -0.05    -0.03  -0.01  -0.05
     2   6     0.00   0.00   0.03     0.01   0.02   0.14    -0.02  -0.03   0.00
     3   6     0.00   0.00  -0.08     0.00   0.02   0.21     0.00  -0.02   0.06
     4   6     0.00   0.00  -0.10    -0.01   0.01   0.11     0.01   0.00   0.06
     5   6     0.00   0.00   0.00     0.00  -0.01  -0.08    -0.01   0.01   0.01
     6   6     0.01   0.00   0.13     0.01  -0.01  -0.17    -0.03   0.00  -0.05
     7   1     0.01   0.01   0.24     0.02   0.00  -0.12    -0.05  -0.02  -0.09
     8   1     0.00   0.01   0.05     0.01   0.04   0.23    -0.03  -0.04   0.00
     9   1    -0.01   0.00  -0.16    -0.01   0.04   0.36     0.01  -0.03   0.10
    10   1     0.00  -0.01  -0.21    -0.03   0.01   0.20     0.02   0.00   0.10
    11   1     0.01   0.01   0.24     0.01  -0.03  -0.34    -0.03   0.01  -0.08
    12   6     0.00  -0.01  -0.02     0.00  -0.02  -0.13     0.00   0.02   0.00
    13   8    -0.01  -0.01  -0.01     0.00  -0.03  -0.28     0.01   0.03   0.08
    14   1     0.00   0.00   0.01    -0.03  -0.09  -0.38     0.02   0.05   0.12
    15   6     0.00  -0.01  -0.04     0.00  -0.02   0.00    -0.01   0.03  -0.07
    16   1    -0.01  -0.01  -0.08    -0.01  -0.01   0.13    -0.02   0.03  -0.12
    17   6     0.00   0.00  -0.01     0.00   0.00   0.05    -0.01   0.02  -0.08
    18   8     0.01   0.00   0.00     0.02   0.00   0.07    -0.02   0.03  -0.17
    19   6    -0.01   0.00   0.00    -0.01   0.01   0.05     0.01  -0.01   0.02
    20   6     0.06  -0.11  -0.06     0.02  -0.06   0.01     0.11   0.01   0.05
    21   1     0.12  -0.20   0.03     0.00  -0.11   0.05     0.17   0.03   0.05
    22   1     0.04  -0.09  -0.08     0.05  -0.09  -0.02     0.11   0.01   0.13
    23   1     0.06  -0.16  -0.18     0.04  -0.05  -0.02     0.14   0.03  -0.01
    24   6    -0.04   0.10  -0.09    -0.03   0.07  -0.01     0.00  -0.03   0.04
    25   1    -0.18   0.33  -0.36    -0.10   0.18  -0.14    -0.16   0.20  -0.18
    26   1     0.27   0.20   0.01     0.12   0.13   0.05     0.36  -0.04   0.08
    27   1    -0.22  -0.14   0.00    -0.11  -0.04   0.02    -0.21  -0.28   0.23
    28   6    -0.02   0.03   0.12    -0.01   0.03   0.12    -0.03  -0.05   0.07
    29   1     0.09   0.05   0.13     0.04   0.02   0.15    -0.21  -0.28   0.24
    30   1    -0.12   0.01   0.10    -0.05   0.05   0.13     0.03   0.22   0.24
    31   1    -0.05   0.05   0.24    -0.02   0.05   0.15     0.05  -0.12  -0.21
                     7                      8                      9
                     A                      A                      A
 Frequencies --   126.0309               186.2233               234.2784
 Red. masses --     3.0101                 4.2602                 3.7156
 Frc consts  --     0.0282                 0.0870                 0.1202
 IR Inten    --     0.3977                 1.1487                 2.3115
 Raman Activ --     0.6067                 2.7266                 1.5544
 Depolar (P) --     0.5868                 0.7500                 0.4170
 Depolar (U) --     0.7396                 0.8571                 0.5886
  Atom  AN      X      Y      Z        X      Y      Z        X      Y      Z
     1   6     0.12   0.04   0.00    -0.05   0.00   0.08     0.00   0.00   0.00
     2   6     0.08   0.09   0.00    -0.02  -0.04   0.17    -0.04   0.05  -0.09
     3   6     0.02   0.08   0.01     0.03  -0.04   0.05    -0.09   0.05  -0.01
     4   6    -0.01   0.02   0.01     0.04   0.00  -0.13    -0.10  -0.01   0.09
     5   6     0.03  -0.04   0.01     0.01   0.04  -0.16    -0.06  -0.05   0.09
     6   6     0.10  -0.02   0.01    -0.03   0.04  -0.07    -0.02  -0.05   0.11
     7   1     0.18   0.05   0.00    -0.09  -0.01   0.17     0.05   0.01  -0.02
     8   1     0.10   0.14   0.00    -0.03  -0.07   0.33    -0.03   0.09  -0.20
     9   1    -0.02   0.12   0.02     0.05  -0.07   0.10    -0.11   0.08  -0.04
    10   1    -0.05   0.01   0.02     0.08   0.01  -0.23    -0.15  -0.01   0.14
    11   1     0.12  -0.06   0.02    -0.05   0.06  -0.07     0.00  -0.07   0.17
    12   6     0.01  -0.09   0.00     0.01   0.06  -0.14    -0.03  -0.07  -0.01
    13   8     0.00  -0.09   0.06    -0.01   0.07   0.10    -0.04  -0.08  -0.07
    14   1     0.00  -0.07   0.07     0.05   0.16   0.27    -0.05  -0.10  -0.11
    15   6     0.01  -0.09  -0.07     0.02   0.03  -0.25    -0.03  -0.06  -0.07
    16   1     0.00  -0.10  -0.12     0.04   0.03  -0.47    -0.06  -0.06  -0.09
    17   6     0.00  -0.06  -0.05     0.01  -0.03  -0.02     0.02   0.01  -0.04
    18   8     0.05  -0.05  -0.07     0.00  -0.05   0.22     0.04  -0.01   0.17
    19   6    -0.07   0.02   0.00     0.01  -0.02  -0.02     0.05   0.04  -0.08
    20   6    -0.09   0.06   0.02     0.03   0.04   0.03     0.25   0.16   0.02
    21   1    -0.37   0.08  -0.06     0.01   0.09  -0.02     0.34   0.26  -0.05
    22   1     0.07  -0.14  -0.06     0.07   0.00   0.07     0.28   0.08   0.25
    23   1     0.01   0.27   0.20     0.07   0.10   0.06     0.33   0.26  -0.04
    24   6    -0.20  -0.01   0.00    -0.07  -0.10   0.03     0.00   0.00  -0.05
    25   1    -0.23   0.02   0.10    -0.08  -0.10   0.15    -0.06   0.07  -0.06
    26   1    -0.27  -0.04  -0.02    -0.14  -0.17  -0.02     0.06  -0.03  -0.06
    27   1    -0.20  -0.04  -0.06    -0.06  -0.10   0.01    -0.06  -0.08  -0.02
    28   6    -0.01   0.13   0.05     0.02  -0.01  -0.03     0.03   0.00  -0.07
    29   1    -0.05  -0.02   0.17    -0.01  -0.05   0.00    -0.03  -0.05  -0.03
    30   1     0.09   0.30   0.17     0.07   0.04   0.01     0.04   0.06  -0.03
    31   1    -0.04   0.18  -0.15     0.02   0.00  -0.11     0.06  -0.02  -0.14
                    10                     11                     12
                     A                      A                      A
 Frequencies --   240.5798               254.9020               310.7534
 Red. masses --     4.1527                 4.3103                 3.3659
 Frc consts  --     0.1416                 0.1650                 0.1915
 IR Inten    --     0.0718                 2.4770                 0.4787
 Raman Activ --     1.6307                 2.4190                 0.5830
 Depolar (P) --     0.7340                 0.2496                 0.6426
 Depolar (U) --     0.8466                 0.3995                 0.7824
  Atom  AN      X      Y      Z        X      Y      Z        X      Y      Z
     1   6     0.09   0.00   0.03     0.13  -0.02   0.00     0.00   0.00  -0.01
     2   6     0.04   0.07   0.15     0.13  -0.03  -0.06     0.03  -0.04   0.07
     3   6    -0.05   0.06  -0.01     0.12  -0.03   0.00     0.07  -0.04  -0.03
     4   6    -0.09  -0.04  -0.16     0.11  -0.04   0.06     0.08   0.01  -0.08
     5   6    -0.03  -0.11  -0.14     0.08  -0.03   0.05     0.04   0.05  -0.02
     6   6     0.04  -0.10  -0.14     0.12  -0.02   0.06     0.02   0.05  -0.08
     7   1     0.17   0.01   0.09     0.13  -0.02  -0.02    -0.05  -0.01   0.00
     8   1     0.07   0.15   0.35     0.13  -0.03  -0.13     0.02  -0.08   0.16
     9   1    -0.10   0.12   0.03     0.11  -0.02  -0.01     0.09  -0.07  -0.04
    10   1    -0.15  -0.06  -0.23     0.11  -0.03   0.08     0.12   0.02  -0.12
    11   1     0.07  -0.14  -0.22     0.12  -0.03   0.10     0.00   0.07  -0.17
    12   6    -0.02  -0.10   0.01     0.04   0.01  -0.03     0.00   0.03   0.11
    13   8     0.00  -0.11   0.14     0.07   0.02  -0.05    -0.06   0.02  -0.01
    14   1    -0.05  -0.06   0.11     0.06   0.00  -0.08    -0.08   0.01  -0.05
    15   6    -0.06  -0.04   0.08    -0.03   0.07  -0.08     0.01   0.00   0.26
    16   1    -0.10  -0.04   0.09    -0.05   0.06  -0.10     0.01   0.01   0.40
    17   6    -0.04   0.07   0.03    -0.11   0.08  -0.01    -0.02  -0.02   0.03
    18   8    -0.02   0.08  -0.04    -0.14   0.06   0.12    -0.06  -0.03   0.02
    19   6     0.00   0.06   0.01    -0.10   0.02  -0.02    -0.02  -0.01  -0.08
    20   6     0.05   0.08   0.03    -0.06   0.06   0.01     0.14   0.04  -0.03
    21   1     0.16   0.12   0.03     0.04   0.10   0.00     0.18   0.07  -0.05
    22   1     0.01   0.13   0.12    -0.11   0.11   0.08     0.19  -0.05   0.12
    23   1     0.04   0.04  -0.02    -0.08   0.01  -0.03     0.22   0.14  -0.10
    24   6     0.13   0.12  -0.01    -0.05   0.03  -0.02    -0.19  -0.06  -0.07
    25   1     0.20   0.04  -0.09    -0.07   0.06  -0.10    -0.33   0.12  -0.05
    26   1     0.13   0.19   0.03     0.04   0.05   0.01    -0.09  -0.11  -0.08
    27   1     0.18   0.19  -0.01    -0.09   0.00   0.03    -0.30  -0.24  -0.06
    28   6    -0.06  -0.06  -0.03    -0.24  -0.17  -0.03    -0.01   0.02  -0.07
    29   1    -0.14  -0.03  -0.07    -0.39  -0.21  -0.03    -0.02   0.00  -0.07
    30   1    -0.12  -0.11  -0.07    -0.37  -0.17  -0.04     0.04   0.03  -0.06
    31   1     0.00  -0.15   0.01    -0.10  -0.36  -0.01    -0.01   0.03  -0.12
                    13                     14                     15
                     A                      A                      A
 Frequencies --   339.8907               365.6921               400.5631
 Red. masses --     3.0384                 4.3303                 2.2803
 Frc consts  --     0.2068                 0.3412                 0.2156
 IR Inten    --     5.4676                 8.5032                 0.8613
 Raman Activ --     0.2456                 1.1587                 0.0794
 Depolar (P) --     0.3377                 0.6292                 0.4800
 Depolar (U) --     0.5049                 0.7724                 0.6487
  Atom  AN      X      Y      Z        X      Y      Z        X      Y      Z
     1   6     0.04  -0.01   0.01    -0.09   0.03   0.02     0.00   0.00   0.00
     2   6     0.00   0.05   0.01    -0.11   0.05   0.03     0.00   0.00  -0.02
     3   6    -0.06   0.04  -0.01    -0.09   0.05  -0.03     0.00   0.00   0.02
     4   6    -0.08  -0.04  -0.01    -0.07   0.04  -0.02     0.00   0.00   0.02
     5   6    -0.04  -0.08  -0.01    -0.03   0.01  -0.01     0.00   0.00  -0.01
     6   6     0.00  -0.08  -0.01    -0.08   0.01  -0.03     0.00   0.00   0.02
     7   1     0.11   0.00   0.03    -0.06   0.03   0.04     0.01   0.00   0.00
     8   1     0.02   0.10   0.02    -0.10   0.06   0.06     0.00   0.00  -0.05
     9   1    -0.10   0.09  -0.02    -0.08   0.04  -0.04     0.00   0.01   0.03
    10   1    -0.13  -0.05   0.02    -0.09   0.03   0.01     0.00   0.00   0.03
    11   1     0.02  -0.11  -0.01    -0.08   0.02  -0.06     0.00   0.00   0.05
    12   6     0.02   0.01   0.01     0.06   0.02   0.04     0.00   0.01  -0.03
    13   8     0.17   0.03   0.01     0.28   0.04   0.01     0.03   0.01   0.00
    14   1     0.12  -0.06  -0.14     0.26  -0.12  -0.16     0.04   0.01   0.03
    15   6    -0.03   0.09   0.02     0.07  -0.01   0.07     0.00   0.01  -0.04
    16   1    -0.06   0.08   0.01     0.10   0.00   0.09     0.00   0.00  -0.09
    17   6    -0.03   0.09   0.01     0.07  -0.06   0.01    -0.01  -0.01   0.05
    18   8    -0.03   0.10   0.03     0.18  -0.05   0.02    -0.02   0.00  -0.04
    19   6    -0.01   0.04  -0.01     0.01  -0.04  -0.03    -0.01  -0.02   0.14
    20   6     0.06  -0.14  -0.11    -0.08   0.07   0.02     0.04  -0.09   0.13
    21   1     0.03  -0.34   0.06    -0.09   0.19  -0.08     0.07  -0.15   0.19
    22   1     0.12  -0.20  -0.23    -0.12   0.12   0.05     0.07  -0.13   0.15
    23   1     0.11  -0.14  -0.28    -0.13   0.04   0.17     0.08  -0.07   0.04
    24   6    -0.07  -0.13   0.11    -0.10   0.01  -0.10    -0.09   0.13   0.00
    25   1    -0.12  -0.09   0.30    -0.18   0.12  -0.15    -0.14   0.20  -0.08
    26   1    -0.06  -0.36  -0.01    -0.08   0.10  -0.05    -0.17   0.33   0.11
    27   1    -0.12  -0.16   0.23    -0.15  -0.11  -0.20    -0.10   0.04  -0.22
    28   6     0.01   0.06  -0.05    -0.08  -0.17   0.01     0.07  -0.03  -0.16
    29   1     0.01   0.07  -0.06    -0.20  -0.22   0.04    -0.14   0.12  -0.35
    30   1     0.07   0.04  -0.05    -0.22  -0.14   0.01     0.35  -0.21  -0.23
    31   1    -0.01   0.09  -0.08     0.04  -0.33   0.04     0.08  -0.03  -0.32
                    16                     17                     18
                     A                      A                      A
 Frequencies --   407.4327               464.7065               476.6418
 Red. masses --     3.7971                 3.6593                 2.6903
 Frc consts  --     0.3714                 0.4656                 0.3601
 IR Inten    --     2.1775                 0.4849                 3.5998
 Raman Activ --     0.5641                 3.8147                 0.5290
 Depolar (P) --     0.6253                 0.6705                 0.7500
 Depolar (U) --     0.7694                 0.8028                 0.8571
  Atom  AN      X      Y      Z        X      Y      Z        X      Y      Z
     1   6    -0.06   0.02  -0.01    -0.09   0.05   0.05     0.02   0.00   0.20
     2   6    -0.03  -0.02   0.00    -0.06  -0.01   0.00     0.01  -0.01  -0.01
     3   6     0.04  -0.01   0.01     0.04   0.01  -0.05     0.00  -0.02  -0.19
     4   6     0.05   0.06   0.00     0.07   0.10   0.04     0.00  -0.01   0.19
     5   6     0.03   0.07   0.00     0.04   0.09  -0.01     0.00  -0.01   0.00
     6   6    -0.02   0.08   0.01    -0.04   0.12  -0.04     0.01  -0.02  -0.18
     7   1    -0.11   0.02  -0.03    -0.14   0.04   0.12     0.03   0.00   0.44
     8   1    -0.04  -0.06  -0.01    -0.08  -0.07   0.00     0.02   0.00  -0.03
     9   1     0.07  -0.05   0.02     0.09  -0.06  -0.10    -0.01  -0.02  -0.44
    10   1     0.10   0.07  -0.03     0.13   0.11   0.11    -0.02   0.00   0.45
    11   1    -0.04   0.12   0.02    -0.08   0.18  -0.10     0.00  -0.04  -0.45
    12   6    -0.01  -0.06   0.00     0.02  -0.09   0.00     0.00   0.01  -0.01
    13   8    -0.12  -0.11  -0.01     0.19  -0.13   0.01    -0.05   0.03   0.02
    14   1    -0.02  -0.02   0.23     0.17  -0.22  -0.09    -0.15   0.03  -0.12
    15   6     0.01  -0.10  -0.01    -0.02  -0.08  -0.02     0.01   0.01  -0.03
    16   1    -0.04  -0.10  -0.02    -0.04  -0.08   0.01     0.01   0.01   0.02
    17   6     0.06   0.06   0.01    -0.09  -0.06  -0.01     0.02   0.01  -0.01
    18   8     0.25   0.09   0.00    -0.10  -0.08   0.00     0.02   0.01   0.00
    19   6    -0.03   0.12   0.03    -0.14   0.00   0.00     0.02   0.01   0.01
    20   6     0.02  -0.07  -0.08     0.06  -0.02   0.02    -0.01   0.00   0.00
    21   1     0.01  -0.27   0.10     0.16  -0.04   0.06    -0.03  -0.01   0.00
    22   1     0.06  -0.10  -0.23     0.12  -0.12   0.19    -0.02   0.01  -0.04
    23   1     0.05  -0.09  -0.26     0.17   0.09  -0.16    -0.03  -0.02   0.02
    24   6    -0.04   0.02   0.13     0.09   0.02   0.04    -0.01   0.01   0.00
    25   1    -0.06   0.03   0.25     0.25  -0.16  -0.09    -0.03   0.03   0.02
    26   1    -0.04  -0.13   0.04     0.16   0.03   0.06    -0.02   0.01   0.00
    27   1    -0.06   0.02   0.21     0.17   0.20   0.20    -0.02  -0.02  -0.02
    28   6    -0.14  -0.07  -0.07    -0.09   0.12  -0.03     0.01  -0.02   0.00
    29   1    -0.36  -0.06  -0.13    -0.01   0.15  -0.04    -0.02  -0.02  -0.01
    30   1    -0.20  -0.12  -0.11     0.02   0.12  -0.02     0.00  -0.03  -0.01
    31   1     0.01  -0.26  -0.09    -0.19   0.25  -0.06     0.03  -0.04   0.00
                    19                     20                     21
                     A                      A                      A
 Frequencies --   486.5651               513.6285               532.5015
 Red. masses --     4.2639                 1.1482                 3.4582
 Frc consts  --     0.5948                 0.1785                 0.5778
 IR Inten    --    18.2733               205.7388                 6.6663
 Raman Activ --     0.5950                 2.8332                 0.5424
 Depolar (P) --     0.6879                 0.7272                 0.7345
 Depolar (U) --     0.8151                 0.8421                 0.8470
  Atom  AN      X      Y      Z        X      Y      Z        X      Y      Z
     1   6     0.07  -0.02  -0.02     0.01   0.01   0.01    -0.01   0.00  -0.13
     2   6     0.06   0.00   0.02     0.01   0.01   0.00     0.00   0.01   0.20
     3   6    -0.03  -0.02  -0.01     0.00   0.00  -0.02     0.00   0.00  -0.13
     4   6    -0.05  -0.08  -0.01    -0.01  -0.02   0.02     0.00   0.01  -0.05
     5   6    -0.05  -0.05   0.03    -0.02  -0.01   0.02     0.01   0.01   0.30
     6   6     0.03  -0.07   0.00     0.00   0.00  -0.02     0.00   0.00  -0.05
     7   1     0.10  -0.02  -0.06     0.02   0.01   0.00    -0.01  -0.01  -0.41
     8   1     0.08   0.04   0.05     0.01   0.01   0.00     0.00   0.01   0.40
     9   1    -0.07   0.04  -0.02    -0.02   0.02  -0.07    -0.01  -0.01  -0.40
    10   1    -0.06  -0.09  -0.05     0.05  -0.01  -0.01     0.00   0.00  -0.32
    11   1     0.09  -0.15  -0.03     0.00  -0.02  -0.07    -0.02   0.00  -0.32
    12   6    -0.06   0.13   0.03    -0.02   0.01   0.00     0.01  -0.01   0.14
    13   8    -0.04   0.22  -0.01     0.01  -0.02  -0.07     0.00  -0.02  -0.06
    14   1     0.01   0.15  -0.02     0.54   0.08   0.82    -0.04  -0.10  -0.18
    15   6     0.03   0.00   0.01    -0.03   0.01   0.02    -0.01   0.00  -0.13
    16   1     0.23   0.03   0.01    -0.01   0.02   0.03    -0.03   0.00  -0.14
    17   6    -0.03  -0.14  -0.01    -0.01   0.00   0.01     0.00   0.02  -0.07
    18   8     0.17  -0.14  -0.02     0.00   0.01   0.00    -0.01   0.01   0.03
    19   6    -0.17   0.01  -0.01     0.00  -0.01   0.00     0.01   0.00   0.03
    20   6     0.05  -0.02   0.01     0.00   0.00   0.01    -0.01  -0.02   0.02
    21   1     0.17  -0.06   0.08     0.00   0.02  -0.01    -0.04  -0.04   0.04
    22   1     0.13  -0.14   0.20     0.00   0.00   0.02    -0.02  -0.01  -0.03
    23   1     0.19   0.10  -0.20     0.00   0.01   0.01    -0.03  -0.04   0.03
    24   6     0.06   0.03   0.05     0.00  -0.01  -0.01     0.00   0.02   0.02
    25   1     0.22  -0.15  -0.11     0.00  -0.01  -0.02     0.00   0.03   0.01
    26   1     0.17   0.04   0.07     0.00   0.00  -0.01    -0.02   0.05   0.03
    27   1     0.14   0.22   0.24     0.00  -0.01  -0.02     0.00   0.02  -0.02
    28   6    -0.17   0.10  -0.05     0.01   0.00   0.01     0.02  -0.01   0.00
    29   1    -0.16   0.12  -0.06     0.03   0.00   0.01     0.00   0.01  -0.02
    30   1    -0.09   0.08  -0.05     0.01   0.01   0.01     0.06  -0.03  -0.01
    31   1    -0.21   0.15  -0.09    -0.01   0.02   0.01     0.03  -0.01  -0.02
                    22                     23                     24
                     A                      A                      A
 Frequencies --   611.3048               666.2514               693.0790
 Red. masses --     4.4242                 4.8364                 6.3720
 Frc consts  --     0.9741                 1.2649                 1.8034
 IR Inten    --    30.4548                 7.3760                 0.5197
 Raman Activ --     6.1542                 6.7751                 7.4603
 Depolar (P) --     0.1157                 0.0551                 0.7374
 Depolar (U) --     0.2075                 0.1044                 0.8488
  Atom  AN      X      Y      Z        X      Y      Z        X      Y      Z
     1   6     0.03   0.05   0.00    -0.05  -0.12   0.00    -0.16   0.30   0.00
     2   6     0.09  -0.04   0.00    -0.18   0.07   0.01     0.04   0.15  -0.01
     3   6     0.04  -0.04   0.00    -0.02   0.10  -0.01     0.33   0.13  -0.01
     4   6     0.03  -0.02   0.00     0.02   0.08   0.01     0.14  -0.27   0.00
     5   6    -0.06   0.04  -0.01     0.17  -0.07   0.02    -0.03  -0.14   0.00
     6   6     0.02   0.07   0.00    -0.03  -0.14   0.01    -0.30  -0.13   0.01
     7   1    -0.04   0.04   0.01     0.12  -0.09  -0.05     0.02   0.33   0.01
     8   1     0.08  -0.06   0.01    -0.17   0.10  -0.02    -0.12  -0.24   0.01
     9   1     0.02  -0.01   0.02     0.07  -0.01  -0.05     0.24   0.25   0.00
    10   1     0.09   0.00   0.02    -0.15   0.05  -0.05    -0.06  -0.30   0.02
    11   1     0.03   0.05   0.02    -0.10  -0.05  -0.04    -0.20  -0.25   0.02
    12   6    -0.14  -0.02   0.02     0.23   0.00  -0.05     0.01   0.00   0.02
    13   8     0.03  -0.01   0.02    -0.10  -0.05   0.00    -0.02  -0.01   0.00
    14   1    -0.04  -0.16  -0.23    -0.15   0.26   0.20    -0.09  -0.01  -0.10
    15   6    -0.20   0.02  -0.01     0.19   0.08   0.01     0.00   0.01   0.00
    16   1    -0.24   0.01  -0.04     0.12   0.08   0.12    -0.03   0.01  -0.01
    17   6    -0.10   0.10   0.01     0.05   0.09   0.00     0.01  -0.01  -0.01
    18   8     0.21   0.18   0.02     0.01   0.11   0.01     0.01  -0.01   0.00
    19   6    -0.08  -0.15  -0.02    -0.11  -0.09  -0.01     0.00   0.00   0.00
    20   6    -0.03  -0.08   0.13    -0.03  -0.08   0.12     0.00   0.00   0.00
    21   1     0.04   0.07   0.02     0.05   0.01   0.07     0.00   0.00   0.00
    22   1    -0.04  -0.09   0.33    -0.01  -0.13   0.31     0.00   0.00   0.00
    23   1     0.00  -0.02   0.18     0.04   0.01   0.08     0.00   0.00   0.00
    24   6     0.03  -0.15  -0.16     0.00  -0.10  -0.11     0.00   0.01   0.01
    25   1     0.07  -0.18  -0.28     0.08  -0.18  -0.26     0.01   0.00   0.00
    26   1     0.04  -0.02  -0.09     0.07  -0.01  -0.05     0.00   0.01   0.01
    27   1     0.06  -0.11  -0.20     0.05  -0.02  -0.06     0.00   0.01   0.01
    28   6     0.02   0.00   0.00    -0.12   0.06  -0.03     0.00   0.00   0.00
    29   1     0.23   0.01   0.05     0.01   0.08  -0.01    -0.01   0.00   0.00
    30   1     0.19   0.06   0.07     0.01   0.09   0.00    -0.01   0.00   0.00
    31   1    -0.18   0.27  -0.06    -0.24   0.23  -0.07     0.00   0.00   0.00
                    25                     26                     27
                     A                      A                      A
 Frequencies --   723.9353               772.4903               785.9376
 Red. masses --     3.1777                 1.9437                 5.6564
 Frc consts  --     0.9812                 0.6834                 2.0586
 IR Inten    --    35.1179                28.1366                11.7183
 Raman Activ --     5.8981                 0.3586                 5.1175
 Depolar (P) --     0.7244                 0.5903                 0.7403
 Depolar (U) --     0.8402                 0.7424                 0.8508
  Atom  AN      X      Y      Z        X      Y      Z        X      Y      Z
     1   6     0.00  -0.03   0.05     0.01   0.02   0.14     0.00   0.21  -0.04
     2   6    -0.03   0.01  -0.09     0.02  -0.01  -0.10     0.19  -0.06   0.01
     3   6     0.00   0.02   0.04    -0.01  -0.01   0.15    -0.14  -0.17  -0.03
     4   6     0.00   0.02  -0.08    -0.02  -0.02  -0.09    -0.15  -0.18   0.03
     5   6     0.02  -0.01  -0.08    -0.02   0.01   0.10    -0.16   0.06  -0.03
     6   6     0.00  -0.03  -0.09     0.00   0.02  -0.07     0.00   0.17   0.01
     7   1     0.04  -0.01   0.46    -0.02   0.02  -0.04    -0.25   0.18   0.07
     8   1    -0.02   0.03   0.10     0.01  -0.02  -0.56     0.19  -0.06   0.18
     9   1     0.03   0.01   0.43    -0.04   0.01  -0.01    -0.33   0.07   0.06
    10   1     0.00   0.03   0.24     0.01  -0.03  -0.52    -0.01  -0.17   0.17
    11   1    -0.01   0.01   0.23     0.00  -0.01  -0.51     0.14   0.02   0.16
    12   6     0.02   0.01   0.36     0.01   0.00   0.01     0.14   0.05   0.02
    13   8    -0.03   0.00  -0.09     0.01  -0.02   0.01    -0.01  -0.14   0.00
    14   1     0.12  -0.17  -0.02    -0.03   0.01  -0.02    -0.13   0.05   0.00
    15   6     0.01   0.01  -0.06     0.01   0.01  -0.02     0.24   0.04   0.00
    16   1     0.00  -0.01  -0.48     0.01   0.02   0.25     0.26   0.05  -0.03
    17   6     0.01   0.01  -0.09     0.01   0.01  -0.07     0.14   0.05  -0.03
    18   8    -0.01   0.00   0.02     0.00   0.00   0.02    -0.07   0.03   0.01
    19   6     0.00   0.00   0.01     0.00   0.00   0.00     0.01   0.00   0.00
    20   6    -0.01  -0.02   0.03     0.00  -0.01   0.02    -0.01  -0.05   0.09
    21   1    -0.02  -0.03   0.04    -0.02  -0.02   0.03    -0.02  -0.05   0.09
    22   1    -0.01  -0.01  -0.01    -0.01   0.00  -0.01    -0.01  -0.05   0.08
    23   1    -0.02  -0.03   0.03    -0.01  -0.02   0.02    -0.01  -0.05   0.08
    24   6     0.00   0.01   0.01     0.00   0.01   0.01     0.00  -0.05  -0.06
    25   1     0.02  -0.01  -0.02     0.00   0.00  -0.02     0.02  -0.06  -0.09
    26   1     0.00   0.04   0.03     0.01   0.02   0.02     0.03  -0.04  -0.05
    27   1     0.01   0.02   0.00     0.00   0.02   0.01     0.01  -0.04  -0.04
    28   6     0.00   0.00   0.00     0.00   0.00   0.00    -0.11   0.07  -0.03
    29   1     0.00   0.01  -0.01     0.00   0.00   0.00    -0.13   0.07  -0.03
    30   1     0.02   0.00   0.00     0.01   0.00   0.00    -0.12   0.06  -0.04
    31   1    -0.01   0.01  -0.01     0.00   0.01  -0.01    -0.08   0.04  -0.02
                    28                     29                     30
                     A                      A                      A
 Frequencies --   834.0669               872.2653               874.8879
 Red. masses --     2.3897                 1.9338                 2.9920
 Frc consts  --     0.9795                 0.8669                 1.3493
 IR Inten    --    15.2247                61.0423                13.8678
[...]
 249,0.00387539,-0.05520150,0.01978875,0.00003332,0.05847094,0.00000858
 ,0.00001348,0.00000095,0.00001740,-0.00001709,-0.00000462,-0.00001644,
 -0.00001584,0.00000057,-0.00000399,-0.00001988,-0.00000450,-0.00000905
 ,0.00004338,-0.00000286,0.00002021,-0.00003209,-0.00000932,-0.00000292
 ,-0.00000948,0.00000232,0.00000328,-0.00000693,0.00000052,0.00000821,-
 0.00000419,0.00000023,-0.00001264,0.00000435,0.00000198,0.00000560,0.0
 0001057,-0.00000143,-0.00030286,-0.00004347,0.00007804,0.00016769,0.00
 006366,0.00004024,-0.00004098,-0.00000521,-0.00003941,0.00025882,-0.00
 002341,0.00012365,0.00008280,-0.00000515,-0.00005061,0.00034191,0.0008
 1844,-0.00091864,0.00046412,0.00015047,0.00017640,0.00576502,0.0035135
 4,-0.01446071,-0.00086938,-0.00165173,-0.00210435,0.00075894,0.0000955
 2,-0.00065162,0.00051986,-0.00011153,-0.00028392,-0.00020514,-0.000183
 68,0.00018576,-0.11453595,-0.04151446,0.11231337,-0.01447877,-0.013107
 13,0.03364190,0.11822109,0.00000727,-0.00001246,-0.00001736,-0.0000003
 2,-0.00000187,-0.00000136,0.00001038,0.00000241,-0.00000400,0.00001420
 ,0.00000627,-0.00000695,0.00003202,-0.00002258,0.00000545,-0.00004161,
 0.00000128,-0.00001858,-0.00000246,0.00000312,0.00000975,0.00000116,0.
 00000043,0.00000392,-0.00000061,0.00000035,0.00000332,0.00000326,-0.00
 000049,0.00000545,-0.00002613,0.00000461,0.00004563,0.00021902,0.00014
 632,-0.00009729,0.00000831,-0.00006296,-0.00002868,0.00004000,0.000004
 04,0.00003774,-0.00010651,-0.00034215,-0.00038885,-0.00018594,0.000076
 01,0.00016045,0.00018655,0.00109315,0.00064070,0.00031710,-0.00012337,
 0.00006357,0.00910072,0.00557096,-0.01964908,-0.00174071,-0.00230360,-
 0.00324996,0.00037008,0.00071578,-0.00111518,-0.00015767,-0.00022128,0
 .00023541,-0.00014930,0.00035100,-0.00023465,-0.04176268,-0.08862208,0
 .08501422,0.00251951,0.00157979,-0.00519331,0.04819023,0.09117265,-0.0
 0000232,0.00001252,0.00001245,0.00001344,-0.00000905,-0.00000029,-0.00
 001968,-0.00001696,0.00000308,-0.00001801,0.00000071,0.00000820,-0.000
 04326,0.00000440,0.00002507,0.00004975,-0.00001922,0.00000968,-0.00000
 031,-0.00000881,-0.00000690,0.00000068,-0.00000328,-0.00000400,0.00000
 298,-0.00000116,-0.00000389,-0.00001153,0.00000057,-0.00000769,0.00000
 432,0.00000267,-0.00003606,-0.00043108,0.00007049,-0.00000673,0.000096
 79,0.00002223,0.00013048,-0.00006016,0.00002149,-0.00006503,0.00003516
 ,0.00012677,0.00018198,0.00003917,-0.00013155,-0.00018096,0.00165554,0
 .00104980,-0.00008260,-0.00073984,-0.00067034,0.00012945,0.01351964,0.
 01071116,-0.02604618,-0.00354689,-0.00433187,-0.00388655,0.00085900,0.
 00046168,-0.00180928,-0.00003545,-0.00012147,0.00050772,-0.00019897,0.
 00000359,0.00044313,0.10979259,0.08179336,-0.26767333,-0.00236769,-0.0
 0138480,0.00372840,-0.11996061,-0.08841708,0.29510704,0.00004931,0.000
 05521,0.00000824,0.00003280,-0.00004229,-0.00000754,-0.00002562,-0.000
 02741,0.00000271,-0.00001102,-0.00004233,-0.00000380,-0.00002517,0.000
 10884,-0.00001793,-0.00000826,-0.00009286,0.00001040,-0.00000146,-0.00
 002789,-0.00000016,0.00001080,-0.00001234,-0.00000306,0.00001445,-0.00
 000887,-0.00000077,-0.00001395,0.00000805,0.00000103,0.00003759,0.0000
 7069,-0.00004412,-0.00055517,-0.00014257,-0.00004191,0.00038087,0.0002
 7695,0.00013591,-0.00006662,-0.00001570,-0.00002876,-0.00146163,0.0001
 8898,-0.00089328,-0.00241097,0.00043856,-0.00149271,0.00042445,-0.0010
 0372,0.00072857,0.00010086,0.00041110,-0.00010141,0.00276089,-0.014890
 84,0.00133490,-0.00008933,0.00061197,0.00075649,-0.00019024,-0.0001194
 1,0.00015229,-0.00001150,0.00017383,-0.00005510,0.00035997,0.00005931,
 0.00013763,-0.07073024,0.06492094,-0.00837608,-0.00578676,0.03850723,-
 0.00530029,0.00360973,-0.01740232,0.00147799,0.07361896,0.00005431,0.0
 0003108,0.00001734,0.00002355,-0.00004066,-0.00000458,-0.00002947,-0.0
 0001705,-0.00000451,0.00000746,-0.00003803,-0.00000776,-0.00010417,0.0
 0015173,0.00011204,-0.00006226,-0.00003811,-0.00001601,-0.00000818,-0.
 00000770,-0.00000608,0.00000986,-0.00001520,-0.00000269,0.00002170,-0.
 00000861,-0.00000228,-0.00000827,0.00001623,0.00000362,-0.00001913,0.0
 0006904,-0.00004215,-0.00065012,0.00040041,0.00040493,0.00068108,0.000
 43463,-0.00023873,-0.00005558,0.00005834,-0.00003163,0.00090129,-0.001
 23538,0.00130817,0.00182554,0.00160820,0.00037596,0.00160746,-0.001482
 22,-0.00007094,-0.00073608,0.00070203,0.00008276,0.00527717,-0.0219969
 5,0.00470903,0.00033681,0.00068208,0.00154006,-0.00024779,0.00040406,-
 0.00002735,-0.00011584,-0.00003251,-0.00004563,0.00009483,0.00112013,-
 0.00083103,0.06089088,-0.33504222,0.04161639,-0.00026576,-0.00257850,0
 .00044362,0.00288375,-0.01023446,0.00023595,-0.07027687,0.36836642,0.0
 0000731,0.00000579,-0.00002231,0.00001803,-0.00001832,-0.00000152,-0.0
 0001218,-0.00001713,-0.00000117,-0.00000535,0.00000034,-0.00000352,0.0
 0001122,0.00001249,-0.00000304,0.00001796,-0.00004468,-0.00004413,0.00
 000128,-0.00001339,0.00001206,0.00000140,-0.00000154,0.00000356,0.0000
 0111,-0.00000270,0.00000196,-0.00000800,-0.00000096,0.00000419,-0.0000
 0673,0.00000402,0.00008851,-0.00005197,0.00006494,-0.00009509,0.000112
 33,0.00002841,0.00006663,-0.00001189,0.00000222,0.00000353,-0.00078708
 ,0.00010294,-0.00068999,-0.00167416,0.00023542,-0.00000857,0.00027899,
 0.00045362,0.00098512,0.00014961,0.00019812,0.00000501,0.00703902,-0.0
 3189703,0.00291575,0.00035592,-0.00079220,0.00216656,-0.00019251,0.000
 21589,0.00037136,0.00007052,0.00000891,-0.00009496,-0.00007607,0.00039
 159,-0.00055827,-0.00823560,0.04564294,-0.06277780,-0.00008699,0.00188
 357,-0.00087555,-0.00853727,0.03259201,-0.00279824,0.01414536,-0.04490
 460,0.06577145,-0.00000537,-0.00003975,-0.00000214,-0.00005980,0.00005
 305,0.00000914,-0.00001070,0.00003522,-0.00000334,0.00000156,0.0002470
 0,0.00001329,-0.00053559,-0.00032004,0.00005059,-0.00008354,0.00011086
 ,0.00001464,0.00000138,0.00003779,0.00000133,-0.00000692,0.00001653,0.
 00000094,-0.00002631,0.00002855,0.00000292,0.00002856,-0.00001794,-0.0
 0000197,-0.00003513,-0.00003535,-0.00001027,0.00042480,0.00202117,0.00
 018013,-0.00035186,-0.00031369,-0.00003784,0.00004998,0.00006505,0.000
 00232,-0.00610893,-0.00174773,-0.00009514,0.00014481,0.00020873,-0.000
 00579,-0.01649596,0.04365679,-0.00697051,-0.00084809,0.00394198,0.0007
 2757,-0.09934929,0.01673937,-0.00405728,0.00470014,-0.01736426,0.00388
 673,0.00006153,0.00051774,-0.00086673,0.00020189,-0.00101340,0.0000841
 8,-0.00150924,-0.00200142,0.00350813,0.00404254,-0.01431241,0.00110266
 ,0.00000187,-0.00108201,0.00003924,-0.00003983,0.00081338,0.00064890,-
 0.00106070,-0.00250437,-0.00251998,0.67628218,-0.00000825,-0.00001157,
 0.00000552,-0.00001471,0.00001446,-0.00000054,-0.00000195,0.00001180,0
 .00000641,-0.00000859,0.00006890,-0.00000476,-0.00016062,-0.00004097,0
 .00000235,-0.00001446,0.00002109,-0.00000197,0.00000159,0.00000941,-0.
 00000105,-0.00000285,0.00000591,-0.00000020,-0.00000899,0.00000779,0.0
 0000067,0.00001151,-0.00000585,-0.00000231,-0.00001350,-0.00001514,-0.
 00001132,0.00025624,0.00043335,-0.00005637,-0.00017230,-0.00005323,0.0
 0002869,0.00000140,0.00004461,0.00001591,-0.00177188,0.00055586,0.0006
 0710,0.00004934,0.00011964,-0.00004812,0.01114496,-0.00696461,0.002568
 93,-0.00214677,-0.00298980,-0.00157439,0.01640237,-0.18197796,0.011998
 63,0.00148267,-0.01965015,0.00772637,0.00060575,0.00115446,-0.00169947
 ,0.00073027,0.00046952,-0.00140462,-0.00063574,0.00078426,0.00096993,0
 .00367942,-0.03015451,-0.00181068,0.00089627,0.00099386,0.00153461,0.0
 0060067,0.00145852,0.00174215,-0.00112215,-0.00071388,-0.00248713,0.03
 697258,0.51601722,0.00001336,0.00000537,0.00001866,0.00000227,-0.00000
 332,-0.00000542,0.00000480,-0.00000156,0.00000737,0.00000692,-0.000005
 07,-0.00001036,0.00000803,0.00001702,-0.00009521,-0.00004347,0.0000015
 3,0.00001607,-0.00000323,0.00000337,-0.00000720,0.00000266,-0.00000207
 ,-0.00000130,0.00000415,-0.00000135,0.00000195,0.00000375,0.00000386,0
 .00000026,-0.00000439,0.00001704,-0.00005350,-0.00003280,-0.00006346,0
 .00013196,0.00008782,0.00010685,-0.00007708,0.00001972,-0.00005093,0.0
 0003793,-0.00003912,-0.00035028,0.00131479,-0.00004175,0.00009214,-0.0
 0031388,-0.00082042,0.00361431,-0.00018780,0.00137244,-0.00036423,-0.0
 0188111,-0.00414592,0.01246519,-0.09542093,-0.00506238,0.03829178,-0.0
 0937319,-0.00071195,0.00060455,0.00128393,-0.00122262,-0.00046968,0.00
 137513,0.00291984,0.00272606,-0.00584234,0.00536845,-0.03385427,0.0026
 4750,0.00086612,0.00044323,0.00090275,0.00043506,-0.00051251,0.0010376
 2,-0.00218017,-0.00472570,-0.00499500,-0.00597311,0.02505477,0.6831221
 3,0.00000730,0.00001578,-0.00000240,0.00002101,-0.00001721,-0.00000103
 ,-0.00001653,-0.00001972,-0.00000206,-0.00000551,-0.00002500,0.0000012
 5,0.00001615,0.00003638,0.00000536,0.00003079,-0.00004277,-0.00000076,
 -0.00000262,-0.00001010,-0.00000078,0.00000303,-0.00000659,-0.00000055
 ,0.00000792,-0.00000427,-0.00000087,-0.00001203,0.00000432,0.00000134,
 0.00000700,0.00000978,0.00000171,-0.00024834,-0.00012239,-0.00000826,0
 .00012835,0.00006012,0.00002073,-0.00002026,-0.00000690,-0.00002011,0.
 00036723,-0.00020741,-0.00001219,0.00002128,-0.00010732,0.00001004,0.0
 0023494,0.00094411,0.00089858,-0.00188436,0.00042566,-0.00010063,0.003
 29512,0.00560888,0.00669214,-0.00017964,-0.00037502,-0.00001044,0.0003
 4184,-0.00020539,0.00024530,-0.00006217,-0.00012585,-0.00014125,-0.000
 08324,0.00010231,0.00019945,-0.00058626,0.00172295,-0.00016551,0.00043
 857,0.00013621,0.00014361,-0.00004628,-0.00005204,-0.00035077,0.000575
 89,0.00040313,0.00022609,-0.09407585,-0.05839989,-0.08454155,0.0976353
 9,0.00000588,-0.00000945,0.00000978,-0.00001538,0.00001008,0.00000153,
 0.00001456,0.00001410,0.00000379,0.00000403,0.00000706,0.00000202,-0.0
 0000565,-0.00001231,-0.00000658,-0.00004046,0.00002782,0.00001222,-0.0
 0000031,0.00000835,-0.00000391,-0.00000019,0.00000230,-0.00000238,-0.0
 0000211,0.00000221,-0.00000127,0.00000959,-0.00000033,-0.00000519,-0.0
 0000627,0.00000073,-0.00002582,0.00013579,0.00005969,0.00000695,-0.000
 04937,-0.00000152,0.00000087,-0.00000126,0.00002929,0.00000561,-0.0001
 2823,0.00008504,0.00011512,-0.00007344,0.00017011,-0.00010735,-0.00153
 697,-0.00125363,-0.00101413,0.00012108,0.00215353,0.00106424,-0.014191
 19,-0.02222852,-0.03062149,-0.00037402,0.00178695,-0.00187401,-0.00001
 896,-0.00003960,0.00142146,0.00005966,-0.00006987,0.00009908,0.0004233
 3,0.00051294,0.00010161,0.00254312,-0.00699015,0.00252364,-0.00004100,
 0.00029825,0.00041653,0.00028338,0.00025748,0.00008606,-0.00072699,-0.
 00156024,-0.00184237,-0.05510201,-0.13871590,-0.12135581,0.06159883,0.
 15463219,0.00000580,-0.00000419,0.00000295,-0.00000745,0.00000491,0.00
 000114,0.00000754,0.00000807,0.00000222,0.00000228,-0.00000829,-0.0000
 0092,0.00002695,0.00000303,0.00000134,-0.00002301,0.00001709,0.0000025
 1,-0.00000079,0.00000424,-0.00000130,0.00000035,-0.00000013,-0.0000012
 4,0.00000106,-0.00000062,-0.00000115,0.00000407,0.00000185,-0.00000254
 ,-0.00000017,0.00000205,-0.00000611,0.00001287,-0.00007489,-0.00002212
 ,0.00000733,0.00002883,0.00001215,-0.00001170,0.00000120,-0.00000460,0
 .00027565,0.00017777,0.00001099,-0.00003435,0.00009139,-0.00002218,-0.
 00111234,-0.00177302,-0.00011645,-0.00127979,0.00272987,0.00051166,0.0
 0217344,0.00493676,0.00359315,0.00028823,0.00052361,0.00105583,-0.0000
 7854,0.00032535,0.00042363,0.00013053,-0.00003803,-0.00004260,0.000045
 43,-0.00011506,0.00026000,0.00008447,0.00106496,0.00055511,-0.00001502
 ,0.00017086,-0.00009239,-0.00013793,0.00023582,0.00042795,-0.00011843,
 -0.00005205,0.00044453,-0.08157613,-0.12600636,-0.24031221,0.09321164,
 0.13507601,0.25640052,0.00000553,0.00000970,-0.00000037,0.00001298,-0.
 00001070,-0.00000321,-0.00000964,-0.00001301,-0.00000092,-0.00000380,-
 0.00001969,0.00000017,0.00001608,0.00002417,-0.00000018,0.00001608,-0.
 00002481,-0.00000807,-0.00000180,-0.00000737,0.00000103,0.00000248,-0.
 00000518,0.00000076,0.00000604,-0.00000347,0.00000014,-0.00000970,0.00
 000274,0.00000159,0.00000493,0.00000974,0.00000490,-0.00015380,-0.0000
 4503,-0.00002232,0.00009129,0.00000666,0.00004518,-0.00001888,-0.00000
 309,-0.00002183,0.00034385,-0.00006505,0.00000440,0.00000491,-0.000048
 05,0.00001102,0.00041719,0.00094885,-0.00126726,-0.00031400,-0.0000116
 3,0.00000373,0.00316383,0.00442903,-0.00759113,-0.00027950,0.00156295,
 -0.00045370,-0.00009692,0.00007143,0.00025433,0.00049212,0.00015161,-0
 .00016150,0.00059925,0.00021283,-0.00024234,-0.00024905,-0.00032797,0.
 00002218,-0.00004633,-0.00006406,0.00017548,0.00033036,-0.00026454,-0.
 00026443,-0.00004690,-0.00000359,-0.00028734,-0.11370363,-0.04205611,0
 .11275866,0.00616257,0.00500382,-0.01251300,0.11820852,0.00000035,-0.0
 0000669,-0.00000839,-0.00000740,0.00000521,0.00000072,0.00000691,0.000
 00663,-0.00000386,0.00000329,0.00000781,-0.00000342,0.00000590,-0.0000
 1307,0.00000917,-0.00001457,0.00001227,-0.00000528,0.00000056,0.000004
 35,0.00000440,-0.00000076,0.00000222,0.00000220,-0.00000231,0.00000148
 ,0.00000184,0.00000647,-0.00000056,0.00000442,-0.00000087,-0.00000559,
 0.00002119,0.00005090,-0.00002353,0.00005134,-0.00002979,0.00003169,-0
 .00006184,0.00002072,0.00000223,0.00003158,-0.00010631,-0.00002780,-0.
 00025299,-0.00001661,0.00005697,0.00009543,-0.00152879,-0.00020663,0.0
 0017545,0.00051824,0.00089100,-0.00014278,-0.01692296,-0.01421825,0.03
 372397,0.00255995,-0.00734947,-0.00003665,0.00029538,0.00017330,-0.000
 00500,0.00001607,0.00013068,-0.00050006,-0.00089505,-0.00089109,0.0021
 2444,-0.00059237,0.00193961,0.00147026,0.00003595,-0.00008740,-0.00007
 440,0.00016299,-0.00042123,-0.00118037,0.00040731,0.00054303,-0.000140
 95,-0.03934785,-0.08327311,0.07670333,0.00996795,0.00758474,-0.0179164
 0,0.04332660,0.09371591,-0.00000652,0.00000469,0.00000481,0.00000728,-
 0.00000505,0.00000066,-0.00001020,-0.00000830,0.00000123,-0.00000338,0
 .00000774,0.00000629,-0.00003942,-0.00000259,0.00002116,0.00003153,-0.
 00001846,-0.00000085,0.00000074,-0.00000542,-0.00000294,-0.00000048,-0
 .00000028,-0.00000192,-0.00000124,0.00000097,-0.00000202,-0.00000700,-
 0.00000268,-0.00000472,-0.00000127,-0.00000155,-0.00001154,0.00001882,
 0.00012607,-0.00004817,-0.00004301,-0.00008839,0.00006598,-0.00001247,
 0.00003284,-0.00003278,-0.00025389,-0.00009035,-0.00008957,0.00003169,
 -0.00009359,-0.00003015,0.00142461,0.00172516,0.00011452,-0.00023025,-
 0.00216157,0.00122101,0.00249606,-0.00036736,-0.00516701,-0.00096641,0
 .00132527,0.00074996,0.00000717,-0.00016941,0.00054535,0.00003314,-0.0
 0023783,0.00010251,0.00036612,0.00048052,-0.00018406,-0.00020875,-0.00
 073954,0.00062942,-0.00014278,0.00002280,-0.00003730,0.00001809,-0.000
 10354,0.00086371,-0.00017765,0.00007579,0.00028032,0.11025476,0.080894
 55,-0.27395691,0.01396288,0.01079483,-0.02290143,-0.12391872,-0.089220
 66,0.29355236,-0.00001826,-0.00003238,0.00000141,-0.00003807,0.0000342
 8,0.00000467,0.00002988,0.00003436,0.00000197,0.00000411,0.00005891,0.
 00000122,-0.00006017,-0.00008698,-0.00001723,-0.00004404,0.00007425,0.
 00000934,0.00000543,0.00002150,0.00000051,-0.00000727,0.00001446,0.000
 00074,-0.00001695,0.00000993,0.00000144,0.00002562,-0.00000945,-0.0000
 0219,-0.00001327,-0.00002881,-0.00000274,0.00050222,0.00029122,0.00005
 011,-0.00028528,-0.00010152,-0.00008066,0.00005066,0.00001832,0.000050
 11,-0.00078028,0.00009087,0.00002288,-0.00000195,0.00016998,-0.0000009
 6,0.00074766,-0.00099557,-0.00032713,-0.00039767,0.00180772,-0.0001122
 0,-0.00886494,-0.00227374,-0.00017879,0.00022411,-0.00086939,0.0002486
 7,-0.00001629,0.00009463,0.00010922,0.00108442,0.00011752,-0.00043030,
 0.00052350,0.00005379,-0.00001133,0.00006758,-0.00086916,0.00004988,0.
 00108192,0.00025599,0.00044324,-0.00001941,0.00005964,-0.00014494,0.00
 051895,0.00006864,0.00005696,-0.35163450,0.03370371,-0.01905119,-0.012
 07128,0.00211075,0.00063099,-0.01494405,0.00208013,-0.00262944,0.38434
 761,0.00000682,0.00001783,-0.00000078,0.00002131,-0.00001967,-0.000002
 53,0.00000238,-0.00001422,0.00000002,0.00000020,-0.00008795,-0.0000036
 4,0.00018723,0.00010836,-0.00002150,0.00002201,-0.00003710,-0.00000077
 ,-0.00000128,-0.00001452,-0.00000014,0.00000366,-0.00000686,-0.0000004
 5,0.00001025,-0.00001046,-0.00000099,-0.00001125,0.00000781,0.00000048
 ,0.00001380,0.00001959,0.00000228,-0.00020184,-0.00071872,-0.00003957,
 0.00014189,0.00012361,0.00001733,-0.00002133,-0.00002074,-0.00000499,0
 .00214867,0.00052426,0.00001167,-0.00008439,-0.00003487,0.00001479,-0.
 00063713,-0.00864507,0.00079715,-0.00115861,0.00189727,-0.00030816,0.0
 4021986,-0.00731835,0.00329048,0.00083016,0.00184999,-0.00091094,-0.00
 011376,-0.00004277,0.00005200,-0.00076840,-0.00019443,0.00051559,-0.00
 024611,0.00030957,-0.00046770,0.00096166,0.00186742,0.00041052,-0.0006
 9572,-0.00049973,-0.00047227,-0.00008316,-0.00007565,-0.00004965,-0.00
 028439,0.00045432,0.00031979,0.02973641,-0.05760396,0.00160982,-0.0213
 0853,0.00323865,0.00058538,-0.01278679,0.00141528,-0.00217464,-0.03590
 360,0.06351109,-0.00000300,-0.00000518,-0.00000177,-0.00000588,0.00000
 472,0.00000014,0.00000100,0.00000467,0.00000289,0.00000113,0.00001780,
 -0.00000184,-0.00003493,-0.00002212,-0.00002112,-0.00000184,0.00000910
 ,0.00000204,0.00000081,0.00000270,0.00000173,-0.00000116,0.00000194,0.
 00000041,-0.00000285,0.00000220,0.00000072,0.00000227,-0.00000203,-0.0
 0000200,-0.00000275,-0.00000506,0.00000356,0.00009355,0.00013421,0.000
 00720,-0.00006446,-0.00004584,0.00002951,-0.00000125,0.00001516,-0.000
 00389,-0.00032263,-0.00006342,0.00009292,0.00000749,0.00001293,0.00000
 692,-0.00022984,0.00078616,0.00005213,-0.00033675,0.00038369,0.0006938
 9,-0.00543752,0.00026636,-0.00107319,-0.00086509,-0.00011978,-0.000102
 22,-0.00013391,0.00002445,-0.00003752,0.00023620,0.00056327,-0.0000272
 9,0.00016801,-0.00019724,-0.00000846,0.00068258,-0.00046252,-0.0001128
 4,0.00004013,-0.00041553,0.00026846,0.00014872,-0.00001507,-0.00000824
 ,-0.00004833,0.00008807,-0.00015137,-0.01840724,0.00195270,-0.05936459
 ,-0.03026095,0.00511894,-0.00017843,0.03347274,-0.00486670,0.00431209,
 0.02130576,-0.00316858,0.05562016||-0.00669427,-0.01613154,-0.00067180
 ,0.00309778,-0.01387054,-0.00112450,0.01477372,-0.00087212,-0.00050232
 ,0.00870401,0.01523027,0.00110851,-0.00008089,-0.02923667,-0.00101844,
 -0.01527124,0.01106939,0.00157216,0.00037727,-0.00030782,-0.00006955,-
 0.00014922,0.00001194,-0.00002362,-0.00005205,-0.00029664,-0.00008695,
 -0.00228066,0.00289797,-0.00180446,-0.00394512,0.00485191,0.00056337,0
 .00834981,0.00292858,0.00042864,0.00555407,0.05614514,0.01286083,0.007
 83007,-0.00760658,-0.00776095,-0.01662597,-0.04828616,-0.00535282,-0.0
 0161122,-0.00870031,-0.00168143,-0.03757285,-0.01512204,-0.00556405,0.
 04285998,0.04206149,0.00630580,-0.00204414,-0.00150253,0.00449526,-0.0
 1201051,-0.00270863,0.01019218,-0.00064576,-0.00208760,-0.00854646,0.0
 0796335,0.00007736,-0.00098840,0.00136616,0.00873774,-0.00596005,-0.00
 820663,-0.00641051,-0.01190973,0.00772859,0.00050320,0.00228607,-0.001
 34561,0.00040626,0.00932977,0.00278988,0.00839557,0.00444312,-0.007437
 09,0.01462758,-0.00433872,-0.00193932,-0.00666314,-0.00192880,-0.00235
 649,-0.00649716,0.00476268,0.00887435,-0.00164440,0.00098464|||@


 THOSE WHO ASPIRE NOT TO GUESS AND DIVINE,
 BUT TO DISCOVER AND KNOW, WHO PROPOSE NOT TO DEVISE 
 MIMIC AND FABULOUS WORLDS OF THEIR OWN, BUT TO 
 EXAMINE AND DISSECT THE NATURE OF THIS VERY WORLD 
 ITSELF, MUST GO TO THE FACTS THEMSELVES FOR EVERYTHING.

                               -- FRANCIS BACON, 1620
 Job cpu time:  0 days  0 hours 13 minutes  3.0 seconds.
 File lengths (MBytes):  RWF=    222 Int=      0 D2E=      0 Chk=      5 Scr=      1
 Normal termination of Gaussian 09 at Thu Nov 28 02:45:55 2024.
