 Entering Link 1 = C:\G09W\l1.exe PID=      9028.
  
 Copyright (c) 1988,1990,1992,1993,1995,1998,2003,2009, Gaussian, Inc.
                  All Rights Reserved.
  
 This is part of the Gaussian(R) 09 program.  It is based on
 the Gaussian(R) 03 system (copyright 2003, Gaussian, Inc.),
 the Gaussian(R) 98 system (copyright 1998, Gaussian, Inc.),
 the Gaussian(R) 94 system (copyright 1995, Gaussian, Inc.),
 the Gaussian 92(TM) system (copyright 1992, Gaussian, Inc.),
 the Gaussian 90(TM) system (copyright 1990, Gaussian, Inc.),
 the Gaussian 88(TM) system (copyright 1988, Gaussian, Inc.),
 the Gaussian 86(TM) system (copyright 1986, Carnegie Mellon
 University), and the Gaussian 82(TM) system (copyright 1983,
 Carnegie Mellon University). Gaussian is a federally registered
 trademark of Gaussian, Inc.
  
 This software contains proprietary and confidential information,
 including trade secrets, belonging to Gaussian, Inc.
  
 This software is provided under written license and may be
 used, copied, transmitted, or stored only in accord with that
 written license.
  
 The following legend is applicable only to US Government
 contracts under FAR:
  
                    RESTRICTED RIGHTS LEGEND
  
 Use, reproduction and disclosure by the US Government is
 subject to restrictions as set forth in subparagraphs (a)
 and (c) of the Commercial Computer Software - Restricted
 Rights clause in FAR 52.227-19.
  
 Gaussian, Inc.
 340 Quinnipiac St., Bldg. 40, Wallingford CT 06492
  
  
 ---------------------------------------------------------------
 Warning -- This program may not be used in any manner that
 competes with the business of Gaussian, Inc. or will provide
 assistance to any competitor of Gaussian, Inc.  The licensee
 of this program is prohibited from giving any competitor of
 Gaussian, Inc. access to this program.  By using this program,
 the user acknowledges that Gaussian, Inc. is engaged in the
 business of creating and licensing software in the field of
 computational chemistry and represents and warrants to the
 licensee that it is not a competitor of Gaussian, Inc. and that
 it will not use this program in any manner prohibited above.
 ---------------------------------------------------------------
  

 Cite this work as:
 Gaussian 09, Revision A.02,
 M. J. Frisch, G. W. Trucks, H. B. Schlegel, G. E. Scuseria, 
 M. A. Robb, J. R. Cheeseman, G. Scalmani, V. Barone, B. Mennucci, 
 G. A. Petersson, H. Nakatsuji, M. Caricato, X. Li, H. P. Hratchian, 
 A. F. Izmaylov, J. Bloino, G. Zheng, J. L. Sonnenberg, M. Hada, 
 M. Ehara, K. Toyota, R. Fukuda, J. Hasegawa, M. Ishida, T. Nakajima, 
 Y. Honda, O. Kitao, H. Nakai, T. Vreven, J. A. Montgomery, Jr., 
 J. E. Peralta, F. Ogliaro, M. Bearpark, J. J. Heyd, E. Brothers, 
 K. N. Kudin, V. N. Staroverov, R. Kobayashi, J. Normand, 
 K. Raghavachari, A. Rendell, J. C. Burant, S. S. Iyengar, J. Tomasi, 
 M. Cossi, N. Rega, J. M. Millam, M. Klene, J. E. Knox, J. B. Cross, 
 V. Bakken, C. Adamo, J. Jaramillo, R. Gomperts, R. E. Stratmann, 
 O. Yazyev, A. J. Austin, R. Cammi, C. Pomelli, J. W. Ochterski, 
 R. L. Martin, K. Morokuma, V. G. Zakrzewski, G. A. Voth, 
 P. Salvador, J. J. Dannenberg, S. Dapprich, A. D. Daniels, 
 O. Farkas, J. B. Foresman, J. V. Ortiz, J. Cioslowski, 
 and D. J. Fox, Gaussian, Inc., Wallingford CT, 2009.
 
 ******************************************
 Gaussian 09:  IA32W-G09RevA.02 11-Jun-2009
                27-Nov-2024 
 ******************************************
 %chk=C:\G09W\Midterm1\E2opt.chk
 ---------------------------------
 # opt hf/6-311g geom=connectivity
 ---------------------------------
 1/18=20,19=15,38=1,57=2/1,3;
 2/9=110,12=2,17=6,18=5,40=1/2;
 3/5=4,6=6,11=9,16=1,25=1,30=1,71=1/1,2,3;
 4//1;
 5/5=2,38=5/2;
 6/7=2,8=2,9=2,10=2,28=1/1;
 7//1,2,3,16;
 1/18=20,19=15/3(2);
 2/9=110/2;
 99//99;
 2/9=110/2;
 3/5=4,6=6,11=9,16=1,25=1,30=1,71=1/1,2,3;
 4/5=5,16=3/1;
 5/5=2,38=5/2;
 7//1,2,3,16;
 1/18=20,19=15/3(-5);
 2/9=110/2;
 6/7=2,8=2,9=2,10=2,19=2,28=1/1;
 99/9=1/99;
 -------------------
 Title Card Required
 -------------------
 Symbolic Z-matrix:
 Charge =  0 Multiplicity = 1
 C                     2.47452  -1.53784  -0.30731 
 C                     3.86521  -1.68795  -0.39314 
 C                     4.69466  -0.55862  -0.36947 
 C                     4.13342   0.72081  -0.25997 
 C                     2.74273   0.87091  -0.17415 
 C                     1.91328  -0.25841  -0.19781 
 H                     1.84121  -2.4001   -0.32538 
 H                     4.29373  -2.66482  -0.47674 
 H                     5.75649  -0.67324  -0.435 
 H                     4.76673   1.58307  -0.2419 
 H                     0.85146  -0.1438   -0.13228 
 C                     2.12599   2.27688  -0.05382 
 O                     2.97237   3.42925  -0.02967 
 H                     3.76725   3.25319  -0.53836 
 C                     0.78114   2.42204   0.02918 
 H                     0.14784   1.55978   0.01111 
 C                     0.16439   3.82801   0.14951 
 O                     0.90729   4.82768   0.32934 
 C                    -1.36149   4.0106    0.04975 
 C                    -2.02322   3.5213    1.3514 
 H                    -1.64922   4.08973   2.17719 
 H                    -3.08341   3.64817   1.28209 
 H                    -1.79681   2.48605   1.49932 
 C                    -1.89977   3.1925   -1.13876 
 H                    -2.95996   3.31937  -1.20807 
 H                    -1.43999   3.53247  -2.04316 
 H                    -1.67335   2.15724  -0.99084 
 C                    -1.68735   5.5006   -0.16315 
 H                    -1.31335   6.06902   0.66264 
 H                    -1.22757   5.84056  -1.06754 
 H                    -2.74754   5.62747  -0.23246 
 

 GradGradGradGradGradGradGradGradGradGradGradGradGradGradGradGradGradGrad
 Berny optimization.
 Initialization pass.
                           ----------------------------
                           !    Initial Parameters    !
                           ! (Angstroms and Degrees)  !
 --------------------------                            --------------------------
 ! Name  Definition              Value          Derivative Info.                !
 --------------------------------------------------------------------------------
 ! R1    R(1,2)                  1.4014         estimate D2E/DX2                !
 ! R2    R(1,6)                  1.4014         estimate D2E/DX2                !
 ! R3    R(1,7)                  1.07           estimate D2E/DX2                !
 ! R4    R(2,3)                  1.4014         estimate D2E/DX2                !
 ! R5    R(2,8)                  1.07           estimate D2E/DX2                !
 ! R6    R(3,4)                  1.4014         estimate D2E/DX2                !
 ! R7    R(3,9)                  1.07           estimate D2E/DX2                !
 ! R8    R(4,5)                  1.4014         estimate D2E/DX2                !
 ! R9    R(4,10)                 1.07           estimate D2E/DX2                !
 ! R10   R(5,6)                  1.4014         estimate D2E/DX2                !
 ! R11   R(5,12)                 1.54           estimate D2E/DX2                !
 ! R12   R(6,11)                 1.07           estimate D2E/DX2                !
 ! R13   R(12,13)                1.43           estimate D2E/DX2                !
 ! R14   R(12,15)                1.3552         estimate D2E/DX2                !
 ! R15   R(13,14)                0.96           estimate D2E/DX2                !
 ! R16   R(15,16)                1.07           estimate D2E/DX2                !
 ! R17   R(15,17)                1.54           estimate D2E/DX2                !
 ! R18   R(17,18)                1.2584         estimate D2E/DX2                !
 ! R19   R(17,19)                1.54           estimate D2E/DX2                !
 ! R20   R(19,20)                1.54           estimate D2E/DX2                !
 ! R21   R(19,24)                1.54           estimate D2E/DX2                !
 ! R22   R(19,28)                1.54           estimate D2E/DX2                !
 ! R23   R(20,21)                1.07           estimate D2E/DX2                !
 ! R24   R(20,22)                1.07           estimate D2E/DX2                !
 ! R25   R(20,23)                1.07           estimate D2E/DX2                !
 ! R26   R(24,25)                1.07           estimate D2E/DX2                !
 ! R27   R(24,26)                1.07           estimate D2E/DX2                !
 ! R28   R(24,27)                1.07           estimate D2E/DX2                !
 ! R29   R(28,29)                1.07           estimate D2E/DX2                !
 ! R30   R(28,30)                1.07           estimate D2E/DX2                !
 ! R31   R(28,31)                1.07           estimate D2E/DX2                !
 ! A1    A(2,1,6)              120.0            estimate D2E/DX2                !
 ! A2    A(2,1,7)              120.0            estimate D2E/DX2                !
 ! A3    A(6,1,7)              120.0            estimate D2E/DX2                !
 ! A4    A(1,2,3)              120.0            estimate D2E/DX2                !
 ! A5    A(1,2,8)              120.0            estimate D2E/DX2                !
 ! A6    A(3,2,8)              120.0            estimate D2E/DX2                !
 ! A7    A(2,3,4)              120.0            estimate D2E/DX2                !
 ! A8    A(2,3,9)              120.0            estimate D2E/DX2                !
 ! A9    A(4,3,9)              120.0            estimate D2E/DX2                !
 ! A10   A(3,4,5)              120.0            estimate D2E/DX2                !
 ! A11   A(3,4,10)             120.0            estimate D2E/DX2                !
 ! A12   A(5,4,10)             120.0            estimate D2E/DX2                !
 ! A13   A(4,5,6)              120.0            estimate D2E/DX2                !
 ! A14   A(4,5,12)             120.0            estimate D2E/DX2                !
 ! A15   A(6,5,12)             120.0            estimate D2E/DX2                !
 ! A16   A(1,6,5)              120.0            estimate D2E/DX2                !
 ! A17   A(1,6,11)             120.0            estimate D2E/DX2                !
 ! A18   A(5,6,11)             120.0            estimate D2E/DX2                !
 ! A19   A(5,12,13)            120.0            estimate D2E/DX2                !
 ! A20   A(5,12,15)            120.0            estimate D2E/DX2                !
 ! A21   A(13,12,15)           120.0            estimate D2E/DX2                !
 ! A22   A(12,13,14)           109.4712         estimate D2E/DX2                !
 ! A23   A(12,15,16)           120.0            estimate D2E/DX2                !
 ! A24   A(12,15,17)           120.0            estimate D2E/DX2                !
 ! A25   A(16,15,17)           120.0            estimate D2E/DX2                !
 ! A26   A(15,17,18)           120.0            estimate D2E/DX2                !
 ! A27   A(15,17,19)           120.0            estimate D2E/DX2                !
 ! A28   A(18,17,19)           120.0            estimate D2E/DX2                !
 ! A29   A(17,19,20)           109.4712         estimate D2E/DX2                !
 ! A30   A(17,19,24)           109.4712         estimate D2E/DX2                !
 ! A31   A(17,19,28)           109.4712         estimate D2E/DX2                !
 ! A32   A(20,19,24)           109.4712         estimate D2E/DX2                !
 ! A33   A(20,19,28)           109.4712         estimate D2E/DX2                !
 ! A34   A(24,19,28)           109.4712         estimate D2E/DX2                !
 ! A35   A(19,20,21)           109.4712         estimate D2E/DX2                !
 ! A36   A(19,20,22)           109.4712         estimate D2E/DX2                !
 ! A37   A(19,20,23)           109.4712         estimate D2E/DX2                !
 ! A38   A(21,20,22)           109.4712         estimate D2E/DX2                !
 ! A39   A(21,20,23)           109.4712         estimate D2E/DX2                !
 ! A40   A(22,20,23)           109.4712         estimate D2E/DX2                !
 ! A41   A(19,24,25)           109.4712         estimate D2E/DX2                !
 ! A42   A(19,24,26)           109.4712         estimate D2E/DX2                !
 ! A43   A(19,24,27)           109.4712         estimate D2E/DX2                !
 ! A44   A(25,24,26)           109.4712         estimate D2E/DX2                !
 ! A45   A(25,24,27)           109.4712         estimate D2E/DX2                !
 ! A46   A(26,24,27)           109.4712         estimate D2E/DX2                !
 ! A47   A(19,28,29)           109.4712         estimate D2E/DX2                !
 ! A48   A(19,28,30)           109.4712         estimate D2E/DX2                !
 ! A49   A(19,28,31)           109.4712         estimate D2E/DX2                !
 ! A50   A(29,28,30)           109.4712         estimate D2E/DX2                !
 ! A51   A(29,28,31)           109.4712         estimate D2E/DX2                !
 ! A52   A(30,28,31)           109.4712         estimate D2E/DX2                !
 ! D1    D(6,1,2,3)             -0.0002         estimate D2E/DX2                !
 ! D2    D(6,1,2,8)            179.9999         estimate D2E/DX2                !
 ! D3    D(7,1,2,3)            180.0            estimate D2E/DX2                !
 ! D4    D(7,1,2,8)              0.0            estimate D2E/DX2                !
 ! D5    D(2,1,6,5)              0.0002         estimate D2E/DX2                !
 ! D6    D(2,1,6,11)          -179.9998         estimate D2E/DX2                !
 ! D7    D(7,1,6,5)           -179.9999         estimate D2E/DX2                !
 ! D8    D(7,1,6,11)             0.0001         estimate D2E/DX2                !
 ! D9    D(1,2,3,4)              0.0001         estimate D2E/DX2                !
 ! D10   D(1,2,3,9)            179.9999         estimate D2E/DX2                !
 ! D11   D(8,2,3,4)           -180.0            estimate D2E/DX2                !
 ! D12   D(8,2,3,9)             -0.0002         estimate D2E/DX2                !
 ! D13   D(2,3,4,5)             -0.0001         estimate D2E/DX2                !
 ! D14   D(2,3,4,10)          -180.0            estimate D2E/DX2                !
 ! D15   D(9,3,4,5)           -179.9999         estimate D2E/DX2                !
 ! D16   D(9,3,4,10)             0.0002         estimate D2E/DX2                !
 ! D17   D(3,4,5,6)              0.0001         estimate D2E/DX2                !
 ! D18   D(3,4,5,12)          -179.9999         estimate D2E/DX2                !
 ! D19   D(10,4,5,6)          -180.0            estimate D2E/DX2                !
 ! D20   D(10,4,5,12)            0.0            estimate D2E/DX2                !
 ! D21   D(4,5,6,1)             -0.0002         estimate D2E/DX2                !
 ! D22   D(4,5,6,11)           179.9998         estimate D2E/DX2                !
 ! D23   D(12,5,6,1)           179.9999         estimate D2E/DX2                !
 ! D24   D(12,5,6,11)           -0.0001         estimate D2E/DX2                !
 ! D25   D(4,5,12,13)            0.0002         estimate D2E/DX2                !
 ! D26   D(4,5,12,15)         -179.9998         estimate D2E/DX2                !
 ! D27   D(6,5,12,13)         -179.9999         estimate D2E/DX2                !
 ! D28   D(6,5,12,15)            0.0001         estimate D2E/DX2                !
 ! D29   D(5,12,13,14)          30.0            estimate D2E/DX2                !
 ! D30   D(15,12,13,14)       -150.0            estimate D2E/DX2                !
 ! D31   D(5,12,15,16)          -0.0001         estimate D2E/DX2                !
 ! D32   D(5,12,15,17)         179.9998         estimate D2E/DX2                !
 ! D33   D(13,12,15,16)        179.9999         estimate D2E/DX2                !
 ! D34   D(13,12,15,17)         -0.0002         estimate D2E/DX2                !
 ! D35   D(12,15,17,18)         -8.38           estimate D2E/DX2                !
 ! D36   D(12,15,17,19)        171.62           estimate D2E/DX2                !
 ! D37   D(16,15,17,18)        171.62           estimate D2E/DX2                !
 ! D38   D(16,15,17,19)         -8.38           estimate D2E/DX2                !
 ! D39   D(15,17,19,20)         74.47           estimate D2E/DX2                !
 ! D40   D(15,17,19,24)        -45.53           estimate D2E/DX2                !
 ! D41   D(15,17,19,28)       -165.53           estimate D2E/DX2                !
 ! D42   D(18,17,19,20)       -105.53           estimate D2E/DX2                !
 ! D43   D(18,17,19,24)        134.47           estimate D2E/DX2                !
 ! D44   D(18,17,19,28)         14.47           estimate D2E/DX2                !
 ! D45   D(17,19,20,21)         60.0            estimate D2E/DX2                !
 ! D46   D(17,19,20,22)        180.0            estimate D2E/DX2                !
 ! D47   D(17,19,20,23)        -60.0            estimate D2E/DX2                !
 ! D48   D(24,19,20,21)        180.0            estimate D2E/DX2                !
 ! D49   D(24,19,20,22)        -60.0            estimate D2E/DX2                !
 ! D50   D(24,19,20,23)         60.0            estimate D2E/DX2                !
 ! D51   D(28,19,20,21)        -60.0            estimate D2E/DX2                !
 ! D52   D(28,19,20,22)         60.0            estimate D2E/DX2                !
 ! D53   D(28,19,20,23)        180.0            estimate D2E/DX2                !
 ! D54   D(17,19,24,25)        180.0            estimate D2E/DX2                !
 ! D55   D(17,19,24,26)        -60.0            estimate D2E/DX2                !
 ! D56   D(17,19,24,27)         60.0            estimate D2E/DX2                !
 ! D57   D(20,19,24,25)         60.0            estimate D2E/DX2                !
 ! D58   D(20,19,24,26)        180.0            estimate D2E/DX2                !
 ! D59   D(20,19,24,27)        -60.0            estimate D2E/DX2                !
 ! D60   D(28,19,24,25)        -60.0            estimate D2E/DX2                !
 ! D61   D(28,19,24,26)         60.0            estimate D2E/DX2                !
 ! D62   D(28,19,24,27)        180.0            estimate D2E/DX2                !
 ! D63   D(17,19,28,29)        -60.0            estimate D2E/DX2                !
 ! D64   D(17,19,28,30)         60.0            estimate D2E/DX2                !
 ! D65   D(17,19,28,31)        180.0            estimate D2E/DX2                !
 ! D66   D(20,19,28,29)         60.0            estimate D2E/DX2                !
 ! D67   D(20,19,28,30)        180.0            estimate D2E/DX2                !
 ! D68   D(20,19,28,31)        -60.0            estimate D2E/DX2                !
 ! D69   D(24,19,28,29)        180.0            estimate D2E/DX2                !
 ! D70   D(24,19,28,30)        -60.0            estimate D2E/DX2                !
 ! D71   D(24,19,28,31)         60.0            estimate D2E/DX2                !
 --------------------------------------------------------------------------------
 Trust Radius=3.00D-01 FncErr=1.00D-07 GrdErr=1.00D-07
 Number of steps in this run= 164 maximum allowed number of steps= 186.
 GradGradGradGradGradGradGradGradGradGradGradGradGradGradGradGradGradGrad

                          Input orientation:                          
 ---------------------------------------------------------------------
 Center     Atomic      Atomic             Coordinates (Angstroms)
 Number     Number       Type             X           Y           Z
 ---------------------------------------------------------------------
      1          6           0        2.474520   -1.537840   -0.307312
      2          6           0        3.865212   -1.687948   -0.393137
      3          6           0        4.694664   -0.558625   -0.369469
      4          6           0        4.133424    0.720806   -0.259973
      5          6           0        2.742732    0.870913   -0.174146
      6          6           0        1.913280   -0.258410   -0.197814
      7          1           0        1.841215   -2.400104   -0.325384
      8          1           0        4.293731   -2.664822   -0.476740
      9          1           0        5.756488   -0.673235   -0.434997
     10          1           0        4.766729    1.583069   -0.241902
     11          1           0        0.851457   -0.143800   -0.132281
     12          6           0        2.125986    2.276881   -0.053822
     13          8           0        2.972365    3.429252   -0.029674
     14          1           0        3.767248    3.253190   -0.538362
     15          6           0        0.781141    2.422040    0.029178
     16          1           0        0.147836    1.559776    0.011106
     17          6           0        0.164394    3.828007    0.149505
     18          8           0        0.907286    4.827678    0.329345
     19          6           0       -1.361485    4.010602    0.049749
     20          6           0       -2.023218    3.521304    1.351401
     21          1           0       -1.649216    4.089726    2.177185
     22          1           0       -3.083407    3.648172    1.282090
     23          1           0       -1.796805    2.486047    1.499322
     24          6           0       -1.899767    3.192499   -1.138762
     25          1           0       -2.959956    3.319367   -1.208073
     26          1           0       -1.439992    3.532466   -2.043157
     27          1           0       -1.673355    2.157242   -0.990841
     28          6           0       -1.687350    5.500598   -0.163147
     29          1           0       -1.313349    6.069020    0.662637
     30          1           0       -1.227575    5.840565   -1.067541
     31          1           0       -2.747539    5.627466   -0.232457
 ---------------------------------------------------------------------
                    Distance matrix (angstroms):
                    1          2          3          4          5
     1  C    0.000000
     2  C    1.401400   0.000000
     3  C    2.427296   1.401400   0.000000
     4  C    2.802800   2.427296   1.401400   0.000000
     5  C    2.427296   2.802800   2.427296   1.401400   0.000000
     6  C    1.401400   2.427296   2.802800   2.427296   1.401400
     7  H    1.070000   2.146700   3.396345   3.872800   3.396345
     8  H    2.146700   1.070000   2.146700   3.396345   3.872800
     9  H    3.396345   2.146700   1.070000   2.146700   3.396345
    10  H    3.872800   3.396345   2.146700   1.070000   2.146700
    11  H    2.146700   3.396345   3.872800   3.396345   2.146700
    12  C    3.838989   4.342800   3.838989   2.548270   1.540000
    13  O    4.999694   5.207208   4.357170   2.955804   2.572683
    14  H    4.967746   4.944242   3.926647   2.573821   2.618688
    15  C    4.319885   5.155758   4.935478   3.770359   2.509019
    16  H    3.887168   4.952778   5.030517   4.081944   2.691159
    17  C    5.859837   6.664554   6.327339   5.057230   3.936621
    18  O    6.586454   7.191988   6.621543   5.255631   4.390712
    19  C    6.754824   7.745191   7.598060   6.411920   5.172270
    20  C    6.969642   8.053156   8.045939   6.952953   5.662698
    21  H    7.405905   8.390291   8.266645   7.122380   5.931166
    22  H    7.766046   8.919857   8.995730   7.939148   6.616471
    23  H    6.140017   7.284372   7.409560   6.432637   5.100643
    24  C    6.496292   7.590106   7.625567   6.578825   5.279493
    25  H    7.344206   8.504131   8.621791   7.613637   6.291628
    26  H    6.636609   7.623679   7.561234   6.492161   5.298325
    27  H    5.596938   6.768933   6.950806   6.026293   4.671559
    28  C    8.178115   9.086200   8.802661   7.532410   6.407787
    29  H    8.552957   9.386304   9.004839   7.689079   6.646226
    30  H    8.290013   9.114263   8.746990   7.456836   6.423311
    31  H    8.866629   9.862533   9.678474   8.451256   7.264384
                    6          7          8          9         10
     6  C    0.000000
     7  H    2.146700   0.000000
     8  H    3.396345   2.471400   0.000000
     9  H    3.872800   4.280590   2.471400   0.000000
    10  H    3.396345   4.942800   4.280590   2.471400   0.000000
    11  H    1.070000   2.471400   4.280590   4.942800   4.280590
    12  C    2.548270   4.693509   5.412800   4.693509   2.736837
    13  O    3.840414   5.945446   6.251688   4.974538   2.583249
    14  H    3.985537   5.976177   5.941704   4.402791   1.968795
    15  C    2.918574   4.950004   6.202451   5.877947   4.081944
    16  H    2.542881   4.319885   5.939164   6.053291   4.625876
    17  C    4.458480   6.467350   7.720131   7.202384   5.135605
    18  O    5.211354   7.317221   8.261678   7.372857   5.074358
    19  C    5.386078   7.176013   8.764698   8.534568   6.597953
    20  C    5.672946   7.266947   9.028515   9.017161   7.238698
    21  H    6.102318   7.782278   9.380077   9.184430   7.300662
    22  H    6.512939   7.963511   9.867600   9.988327   8.259045
    23  H    4.917016   6.359183   8.217718   8.412781   6.850344
    24  C    5.228144   6.777444   8.550199   8.605663   6.916415
    25  H    6.129400   7.519490   9.431932   9.618468   7.978088
    26  H    5.387065   6.993744   8.586944   8.489018   6.750412
    27  H    4.396387   5.793482   7.689129   7.970140   6.508861
    28  C    6.792048   8.654373  10.126487   9.674753   7.550389
    29  H    7.154571   9.091398  10.441145   9.830839   7.609815
    30  H    6.915120   8.824788  10.157532   9.571146   7.398624
    31  H    7.507860   9.247009  10.881231  10.585760   8.533549
                   11         12         13         14         15
    11  H    0.000000
    12  C    2.736837   0.000000
    13  O    4.156378   1.430000   0.000000
    14  H    4.495140   1.970203   0.960000   0.000000
    15  C    2.571876   1.355200   2.412344   3.151150   0.000000
    16  H    1.848733   2.105120   3.387413   4.033573   1.070000
    17  C    4.040632   2.509019   2.841797   3.712699   1.540000
    18  O    4.993176   2.852825   2.519731   3.378063   2.427572
    19  C    4.710552   3.896019   4.373389   5.217610   2.667358
    20  C    4.888563   4.554023   5.183791   6.096932   3.289542
    21  H    5.432287   4.745098   5.163862   6.116541   3.647157
    22  H    5.644700   5.550033   6.200082   7.099403   4.243574
    23  H    4.073268   4.224251   5.096317   5.974893   2.968371
    24  C    4.439947   4.268740   5.002380   5.699055   3.024064
    25  H    5.260962   5.318447   6.049226   6.760782   4.041261
    26  H    4.734672   4.272019   4.851151   5.427500   3.234354
    27  H    3.522300   3.915010   4.911676   5.568303   2.671162
    28  C    6.189161   4.994580   5.101101   5.911368   3.950691
    29  H    6.627021   5.169396   5.080848   5.931590   4.253072
    30  H    6.403882   4.997383   4.952887   5.650026   4.113884
    31  H    6.802228   5.916888   6.131115   6.940693   4.774389
                   16         17         18         19         20
    16  H    0.000000
    17  C    2.272510   0.000000
    18  O    3.370047   1.258400   0.000000
    19  C    2.878557   1.540000   2.427572   0.000000
    20  C    3.218300   2.514809   3.367352   1.540000   0.000000
    21  H    3.784434   2.732978   3.239566   2.148263   1.070000
    22  H    4.051879   3.444314   4.269026   2.148263   1.070000
    23  H    2.618089   2.732978   3.763534   2.148263   1.070000
    24  C    2.860185   2.514809   3.564925   1.540000   2.514809
    25  H    3.773716   3.444314   4.426535   2.148263   2.732978
    26  H    3.260782   2.732978   3.579951   2.148263   3.444314
    27  H    2.162776   2.732978   3.941297   2.148263   2.732978
    28  C    4.350672   2.514809   2.725344   1.540000   2.514809
    29  H    4.784645   2.732978   2.565781   2.148263   2.732978
    30  H    4.623893   2.732978   2.744970   2.148263   3.444314
    31  H    4.998861   3.444314   3.783256   2.148263   2.732978
                   21         22         23         24         25
    21  H    0.000000
    22  H    1.747303   0.000000
    23  H    1.747303   1.747303   0.000000
    24  C    3.444314   2.732978   2.732978   0.000000
    25  H    3.710993   2.514809   3.062243   1.070000   0.000000
    26  H    4.262112   3.710993   3.710993   1.070000   1.747303
    27  H    3.710993   3.062243   2.514809   1.070000   1.747303
    28  C    2.732978   2.732978   3.444314   2.514809   2.732978
    29  H    2.514809   3.062243   3.710993   3.444314   3.710993
    30  H    3.710993   3.710993   4.262112   2.732978   3.062243
    31  H    3.062243   2.514809   3.710993   2.732978   2.514809
                   26         27         28         29         30
    26  H    0.000000
    27  H    1.747303   0.000000
    28  C    2.732978   3.444314   0.000000
    29  H    3.710993   4.262112   1.070000   0.000000
    30  H    2.514809   3.710993   1.070000   1.747303   0.000000
    31  H    3.062243   3.710993   1.070000   1.747303   1.747303
                   31
    31  H    0.000000
 Stoichiometry    C13H16O2
 Framework group  C1[X(C13H16O2)]
 Deg. of freedom    87
 Full point group                 C1      NOp   1
 Largest Abelian subgroup         C1      NOp   1
 Largest concise Abelian subgroup C1      NOp   1
                         Standard orientation:                         
 ---------------------------------------------------------------------
 Center     Atomic      Atomic             Coordinates (Angstroms)
 Number     Number       Type             X           Y           Z
 ---------------------------------------------------------------------
      1          6           0        3.517221   -1.729690    0.044674
      2          6           0        4.617711   -0.863842   -0.011473
      3          6           0        4.417084    0.522445   -0.054826
      4          6           0        3.115969    1.042884   -0.042030
      5          6           0        2.015480    0.177036    0.014118
      6          6           0        2.216106   -1.209251    0.057471
      7          1           0        3.670404   -2.788151    0.077774
      8          1           0        5.611141   -1.261208   -0.021243
      9          1           0        5.257332    1.183540   -0.097694
     10          1           0        2.962786    2.101345   -0.075131
     11          1           0        1.375858   -1.870345    0.100344
     12          6           0        0.585682    0.748948    0.028178
     13          8           0        0.380962    2.163526   -0.016062
     14          1           0        1.099967    2.575924   -0.500376
     15          6           0       -0.478527   -0.088356    0.082478
     16          1           0       -0.325344   -1.146817    0.115579
     17          6           0       -1.908324    0.483555    0.096542
     18          8           0       -2.089028    1.723096    0.216776
     19          6           0       -3.116980   -0.461454   -0.036534
     20          6           0       -3.322042   -1.222059    1.286731
     21          1           0       -3.501541   -0.522417    2.076149
     22          1           0       -4.161822   -1.878656    1.194270
     23          1           0       -2.445239   -1.793576    1.509186
     24          6           0       -2.858635   -1.468415   -1.172706
     25          1           0       -3.698415   -2.125012   -1.265167
     26          1           0       -2.716157   -0.939943   -2.092117
     27          1           0       -1.981832   -2.039932   -0.950251
     28          6           0       -4.378920    0.361104   -0.356702
     29          1           0       -4.558419    1.060746    0.432716
     30          1           0       -4.236442    0.889576   -1.276113
     31          1           0       -5.218700   -0.295493   -0.449164
 ---------------------------------------------------------------------
 Rotational constants (GHZ):      1.4025632      0.2760151      0.2431254
 Standard basis: 6-311G (5D, 7F)
 There are   243 symmetry adapted basis functions of A   symmetry.
 Integral buffers will be    262144 words long.
 Raffenetti 1 integral format.
 Two-electron integral symmetry is turned on.
   243 basis functions,   470 primitive gaussians,   243 cartesian basis functions
    55 alpha electrons       55 beta electrons
       nuclear repulsion energy       941.3806022684 Hartrees.
 NAtoms=   31 NActive=   31 NUniq=   31 SFac= 7.50D-01 NAtFMM=   80 NAOKFM=F Big=F
 One-electron integrals computed using PRISM.
 NBasis=   243 RedAO= T  NBF=   243
 NBsUse=   243 1.00D-06 NBFU=   243
 Harris functional with IExCor=  205 diagonalized for initial guess.
 ExpMin= 1.03D-01 ExpMax= 8.59D+03 ExpMxC= 1.30D+03 IAcc=1 IRadAn=         1 AccDes= 0.00D+00
 HarFok:  IExCor=  205 AccDes= 0.00D+00 IRadAn=         1 IDoV= 1
 ScaDFX=  1.000000  1.000000  1.000000  1.000000
 FoFCou: FMM=F IPFlag=           0 FMFlag=      100000 FMFlg1=           0
         NFxFlg=           0 DoJE=T BraDBF=F KetDBF=T FulRan=T
         Omega=  0.000000  0.000000  1.000000  0.000000  0.000000 ICntrl=     500 IOpCl=  0
         NMat0=    1 NMatS0=    1 NMatT0=    0 NMatD0=    1 NMtDS0=    0 NMtDT0=    0
         I1Cent=           4 NGrid=           0.
 Petite list used in FoFCou.
 Initial guess orbital symmetries:
       Occupied  (A) (A) (A) (A) (A) (A) (A) (A) (A) (A) (A) (A)
                 (A) (A) (A) (A) (A) (A) (A) (A) (A) (A) (A) (A)
                 (A) (A) (A) (A) (A) (A) (A) (A) (A) (A) (A) (A)
                 (A) (A) (A) (A) (A) (A) (A) (A) (A) (A) (A) (A)
                 (A) (A) (A) (A) (A) (A) (A)
       Virtual   (A) (A) (A) (A) (A) (A) (A) (A) (A) (A) (A) (A)
                 (A) (A) (A) (A) (A) (A) (A) (A) (A) (A) (A) (A)
                 (A) (A) (A) (A) (A) (A) (A) (A) (A) (A) (A) (A)
                 (A) (A) (A) (A) (A) (A) (A) (A) (A) (A) (A) (A)
                 (A) (A) (A) (A) (A) (A) (A) (A) (A) (A) (A) (A)
                 (A) (A) (A) (A) (A) (A) (A) (A) (A) (A) (A) (A)
                 (A) (A) (A) (A) (A) (A) (A) (A) (A) (A) (A) (A)
                 (A) (A) (A) (A) (A) (A) (A) (A) (A) (A) (A) (A)
                 (A) (A) (A) (A) (A) (A) (A) (A) (A) (A) (A) (A)
                 (A) (A) (A) (A) (A) (A) (A) (A) (A) (A) (A) (A)
                 (A) (A) (A) (A) (A) (A) (A) (A) (A) (A) (A) (A)
                 (A) (A) (A) (A) (A) (A) (A) (A) (A) (A) (A) (A)
                 (A) (A) (A) (A) (A) (A) (A) (A) (A) (A) (A) (A)
                 (A) (A) (A) (A) (A) (A) (A) (A) (A) (A) (A) (A)
                 (A) (A) (A) (A) (A) (A) (A) (A) (A) (A) (A) (A)
                 (A) (A) (A) (A) (A) (A) (A) (A)
 The electronic state of the initial guess is 1-A.
 Requested convergence on RMS density matrix=1.00D-08 within 128 cycles.
 Requested convergence on MAX density matrix=1.00D-06.
 Requested convergence on             energy=1.00D-06.
 No special actions if energy rises.
 Integral accuracy reduced to 1.0D-05 until final iterations.
 Initial convergence to 1.0D-05 achieved.  Increase integral accuracy.
 SCF Done:  E(RHF) =  -651.154978510     A.U. after   17 cycles
             Convg  =    0.7036D-08             -V/T =  2.0002

 **********************************************************************

            Population analysis using the SCF density.

 **********************************************************************

 Orbital symmetries:
       Occupied  (A) (A) (A) (A) (A) (A) (A) (A) (A) (A) (A) (A)
                 (A) (A) (A) (A) (A) (A) (A) (A) (A) (A) (A) (A)
                 (A) (A) (A) (A) (A) (A) (A) (A) (A) (A) (A) (A)
                 (A) (A) (A) (A) (A) (A) (A) (A) (A) (A) (A) (A)
                 (A) (A) (A) (A) (A) (A) (A)
       Virtual   (A) (A) (A) (A) (A) (A) (A) (A) (A) (A) (A) (A)
                 (A) (A) (A) (A) (A) (A) (A) (A) (A) (A) (A) (A)
                 (A) (A) (A) (A) (A) (A) (A) (A) (A) (A) (A) (A)
                 (A) (A) (A) (A) (A) (A) (A) (A) (A) (A) (A) (A)
                 (A) (A) (A) (A) (A) (A) (A) (A) (A) (A) (A) (A)
                 (A) (A) (A) (A) (A) (A) (A) (A) (A) (A) (A) (A)
                 (A) (A) (A) (A) (A) (A) (A) (A) (A) (A) (A) (A)
                 (A) (A) (A) (A) (A) (A) (A) (A) (A) (A) (A) (A)
                 (A) (A) (A) (A) (A) (A) (A) (A) (A) (A) (A) (A)
                 (A) (A) (A) (A) (A) (A) (A) (A) (A) (A) (A) (A)
                 (A) (A) (A) (A) (A) (A) (A) (A) (A) (A) (A) (A)
                 (A) (A) (A) (A) (A) (A) (A) (A) (A) (A) (A) (A)
                 (A) (A) (A) (A) (A) (A) (A) (A) (A) (A) (A) (A)
                 (A) (A) (A) (A) (A) (A) (A) (A) (A) (A) (A) (A)
                 (A) (A) (A) (A) (A) (A) (A) (A) (A) (A) (A) (A)
                 (A) (A) (A) (A) (A) (A) (A) (A)
 The electronic state is 1-A.
 Alpha  occ. eigenvalues --  -20.59077 -20.52813 -11.34974 -11.33730 -11.28795
 Alpha  occ. eigenvalues --  -11.27004 -11.26815 -11.26597 -11.26553 -11.26384
 Alpha  occ. eigenvalues --  -11.25228 -11.24784 -11.21669 -11.21663 -11.19961
 Alpha  occ. eigenvalues --   -1.39640  -1.35507  -1.18304  -1.11104  -1.08406
 Alpha  occ. eigenvalues --   -1.04446  -1.02227  -0.95088  -0.94021  -0.88762
 Alpha  occ. eigenvalues --   -0.85991  -0.84070  -0.78196  -0.75822  -0.70828
 Alpha  occ. eigenvalues --   -0.68398  -0.65721  -0.65272  -0.64851  -0.62263
 Alpha  occ. eigenvalues --   -0.61893  -0.60999  -0.59960  -0.58430  -0.57529
 Alpha  occ. eigenvalues --   -0.56003  -0.55030  -0.54149  -0.52439  -0.52333
 Alpha  occ. eigenvalues --   -0.51843  -0.51082  -0.50605  -0.49032  -0.45705
 Alpha  occ. eigenvalues --   -0.45082  -0.39831  -0.38411  -0.36017  -0.32281
 Alpha virt. eigenvalues --    0.06319   0.10854   0.13255   0.14975   0.15190
 Alpha virt. eigenvalues --    0.15948   0.17124   0.18776   0.20486   0.20873
 Alpha virt. eigenvalues --    0.21207   0.22592   0.23085   0.23994   0.25934
 Alpha virt. eigenvalues --    0.26305   0.27756   0.28033   0.29962   0.30599
 Alpha virt. eigenvalues --    0.33303   0.34158   0.34978   0.35435   0.37443
 Alpha virt. eigenvalues --    0.38733   0.40696   0.41044   0.42904   0.43856
 Alpha virt. eigenvalues --    0.44709   0.45085   0.46731   0.47262   0.49799
 Alpha virt. eigenvalues --    0.51250   0.53454   0.54796   0.55439   0.55799
 Alpha virt. eigenvalues --    0.56880   0.57518   0.58999   0.59350   0.59801
 Alpha virt. eigenvalues --    0.60801   0.61029   0.61706   0.62520   0.62907
 Alpha virt. eigenvalues --    0.63741   0.65309   0.65628   0.67429   0.68930
 Alpha virt. eigenvalues --    0.69434   0.70940   0.73168   0.74356   0.76722
 Alpha virt. eigenvalues --    0.77775   0.78820   0.79727   0.80286   0.80715
 Alpha virt. eigenvalues --    0.81409   0.81694   0.82133   0.82224   0.83057
 Alpha virt. eigenvalues --    0.83563   0.85262   0.85712   0.86248   0.86596
 Alpha virt. eigenvalues --    0.86905   0.87613   0.89352   0.90315   0.90498
 Alpha virt. eigenvalues --    0.91729   0.91900   0.92914   0.93956   0.95721
 Alpha virt. eigenvalues --    0.96291   1.01005   1.01758   1.04297   1.07959
 Alpha virt. eigenvalues --    1.08593   1.09927   1.11359   1.11635   1.14920
 Alpha virt. eigenvalues --    1.16211   1.16533   1.18340   1.19860   1.23319
 Alpha virt. eigenvalues --    1.23913   1.26660   1.26808   1.31318   1.35850
 Alpha virt. eigenvalues --    1.38158   1.42012   1.47879   1.50437   1.62659
 Alpha virt. eigenvalues --    1.93699   2.03245   2.47002   2.52302   2.55598
 Alpha virt. eigenvalues --    2.59594   2.60400   2.61655   2.62818   2.63701
 Alpha virt. eigenvalues --    2.65237   2.66453   2.68213   2.68412   2.68952
 Alpha virt. eigenvalues --    2.70660   2.79915   2.88502   2.89053   2.91701
 Alpha virt. eigenvalues --    2.93882   2.96302   3.02292   3.04263   3.07231
 Alpha virt. eigenvalues --    3.09408   3.12560   3.17526   3.20815   3.21633
 Alpha virt. eigenvalues --    3.22926   3.26198   3.26733   3.28209   3.29542
 Alpha virt. eigenvalues --    3.30036   3.30497   3.32658   3.33532   3.36675
 Alpha virt. eigenvalues --    3.38843   3.41373   3.43495   3.46195   3.48969
 Alpha virt. eigenvalues --    3.50344   3.52988   3.55428   3.57553   3.60086
 Alpha virt. eigenvalues --    3.61226   3.63150   3.65059   3.67982   3.71707
 Alpha virt. eigenvalues --    3.74487   3.87644   5.37352   5.45629   5.46669
 Alpha virt. eigenvalues --    5.53006   5.60692   5.75029  24.24560  24.40593
 Alpha virt. eigenvalues --   24.48584  24.50056  24.55396  24.62541  24.68439
 Alpha virt. eigenvalues --   24.71942  24.75087  24.77668  24.78989  24.84103
 Alpha virt. eigenvalues --   25.00644  51.56562  51.63360
          Condensed to atoms (all electrons):
              1          2          3          4          5          6
     1  C    5.046638   0.493260  -0.073357  -0.028839  -0.062041   0.466677
     2  C    0.493260   5.000132   0.505528  -0.094519  -0.010132  -0.094900
     3  C   -0.073357   0.505528   5.031406   0.446857  -0.060429  -0.027450
     4  C   -0.028839  -0.094519   0.446857   5.180680   0.388336  -0.072204
     5  C   -0.062041  -0.010132  -0.060429   0.388336   5.632612   0.476604
     6  C    0.466677  -0.094900  -0.027450  -0.072204   0.476604   5.032261
     7  H    0.397365  -0.038145   0.005408  -0.000231   0.005934  -0.035668
     8  H   -0.041898   0.399056  -0.041359   0.007882  -0.001592   0.007759
     9  H    0.005504  -0.037190   0.397217  -0.036127   0.005353  -0.000290
    10  H   -0.000083   0.004632  -0.018406   0.394086  -0.070635   0.003237
    11  H   -0.029734   0.004551  -0.000240   0.004225  -0.044153   0.387905
    12  C    0.008044   0.000550   0.012207  -0.046498   0.026461  -0.022630
    13  O   -0.000029  -0.000025   0.001123   0.007697  -0.119044   0.002378
    14  H   -0.000007  -0.000008  -0.000235   0.000672  -0.002524   0.000397
    15  C    0.000368   0.000040  -0.000417   0.013691  -0.127101  -0.004040
    16  H    0.000608  -0.000048   0.000038   0.000798  -0.011447  -0.001332
    17  C   -0.000060   0.000001   0.000007  -0.000441   0.013759  -0.000293
    18  O    0.000000   0.000000   0.000000   0.000037  -0.000004  -0.000034
    19  C    0.000000   0.000000   0.000000   0.000012  -0.000754  -0.000006
    20  C    0.000000   0.000000   0.000000   0.000000  -0.000019   0.000002
    21  H    0.000000   0.000000   0.000000   0.000000   0.000002   0.000001
    22  H    0.000000   0.000000   0.000000   0.000000   0.000000  -0.000001
    23  H    0.000001   0.000000   0.000000  -0.000001  -0.000009   0.000007
    24  C    0.000000   0.000000   0.000000  -0.000001  -0.000083   0.000035
    25  H    0.000000   0.000000   0.000000   0.000000   0.000002  -0.000003
    26  H    0.000000   0.000000   0.000000   0.000000   0.000021  -0.000015
    27  H    0.000005   0.000000   0.000000  -0.000002  -0.000088   0.000115
    28  C    0.000000   0.000000   0.000000   0.000000   0.000000   0.000001
    29  H    0.000000   0.000000   0.000000   0.000000  -0.000001   0.000000
    30  H    0.000000   0.000000   0.000000   0.000000   0.000000   0.000000
    31  H    0.000000   0.000000   0.000000   0.000000   0.000000   0.000000
              7          8          9         10         11         12
     1  C    0.397365  -0.041898   0.005504  -0.000083  -0.029734   0.008044
     2  C   -0.038145   0.399056  -0.037190   0.004632   0.004551   0.000550
     3  C    0.005408  -0.041359   0.397217  -0.018406  -0.000240   0.012207
     4  C   -0.000231   0.007882  -0.036127   0.394086   0.004225  -0.046498
     5  C    0.005934  -0.001592   0.005353  -0.070635  -0.044153   0.026461
     6  C   -0.035668   0.007759  -0.000290   0.003237   0.387905  -0.022630
     7  H    0.502061  -0.003924  -0.000198   0.000025  -0.003331  -0.000292
     8  H   -0.003924   0.505851  -0.003915  -0.000172  -0.000155  -0.000048
     9  H   -0.000198  -0.003915   0.501578  -0.003600   0.000012  -0.000292
    10  H    0.000025  -0.000172  -0.003600   0.507405  -0.000244   0.001848
    11  H   -0.003331  -0.000155   0.000012  -0.000244   0.494748  -0.003786
    12  C   -0.000292  -0.000048  -0.000292   0.001848  -0.003786   5.034548
    13  O    0.000001   0.000000  -0.000012   0.004436  -0.000222   0.311066
    14  H    0.000000   0.000000   0.000009   0.002234   0.000019  -0.029623
    15  C    0.000068   0.000000   0.000006   0.001875   0.005160   0.361594
    16  H    0.000017  -0.000001   0.000001   0.000016   0.000533  -0.043017
    17  C    0.000000   0.000000   0.000000  -0.000046   0.000547  -0.009375
    18  O    0.000000   0.000000   0.000000   0.000010  -0.000018   0.015423
    19  C    0.000000   0.000000   0.000000   0.000001  -0.000138   0.005289
    20  C    0.000000   0.000000   0.000000   0.000000  -0.000025  -0.000083
    21  H    0.000000   0.000000   0.000000   0.000000   0.000000  -0.000027
    22  H    0.000000   0.000000   0.000000   0.000000   0.000000   0.000025
    23  H    0.000000   0.000000   0.000000   0.000000   0.000034   0.000259
    24  C    0.000000   0.000000   0.000000   0.000000   0.000110   0.000144
    25  H    0.000000   0.000000   0.000000   0.000000  -0.000001  -0.000010
    26  H    0.000000   0.000000   0.000000   0.000000  -0.000016   0.000005
    27  H   -0.000001   0.000000   0.000000   0.000000   0.000486   0.000891
    28  C    0.000000   0.000000   0.000000   0.000000   0.000004  -0.000357
    29  H    0.000000   0.000000   0.000000   0.000000   0.000000  -0.000077
    30  H    0.000000   0.000000   0.000000   0.000000   0.000000  -0.000040
    31  H    0.000000   0.000000   0.000000   0.000000   0.000000   0.000014
             13         14         15         16         17         18
     1  C   -0.000029  -0.000007   0.000368   0.000608  -0.000060   0.000000
     2  C   -0.000025  -0.000008   0.000040  -0.000048   0.000001   0.000000
     3  C    0.001123  -0.000235  -0.000417   0.000038   0.000007   0.000000
     4  C    0.007697   0.000672   0.013691   0.000798  -0.000441   0.000037
     5  C   -0.119044  -0.002524  -0.127101  -0.011447   0.013759  -0.000004
     6  C    0.002378   0.000397  -0.004040  -0.001332  -0.000293  -0.000034
     7  H    0.000001   0.000000   0.000068   0.000017   0.000000   0.000000
     8  H    0.000000   0.000000   0.000000  -0.000001   0.000000   0.000000
     9  H   -0.000012   0.000009   0.000006   0.000001   0.000000   0.000000
    10  H    0.004436   0.002234   0.001875   0.000016  -0.000046   0.000010
    11  H   -0.000222   0.000019   0.005160   0.000533   0.000547  -0.000018
    12  C    0.311066  -0.029623   0.361594  -0.043017  -0.009375   0.015423
    13  O    8.357833   0.259914  -0.120844   0.003752   0.006983  -0.025160
    14  H    0.259914   0.379672   0.004548  -0.000275  -0.000102   0.001030
    15  C   -0.120844   0.004548   6.017633   0.369653   0.050605  -0.139559
    16  H    0.003752  -0.000275   0.369653   0.477971  -0.027792   0.002724
    17  C    0.006983  -0.000102   0.050605  -0.027792   5.136300   0.598026
    18  O   -0.025160   0.001030  -0.139559   0.002724   0.598026   8.143703
    19  C   -0.000422   0.000035  -0.171249   0.009581  -0.012322  -0.131776
    20  C   -0.000003   0.000000   0.006462  -0.000092  -0.110612   0.001112
    21  H    0.000005  -0.000001  -0.000070  -0.000041  -0.000919   0.002061
    22  H    0.000000   0.000000  -0.000688   0.000040   0.007645  -0.000308
    23  H   -0.000005   0.000001   0.004387   0.001005  -0.006061  -0.000064
    24  C    0.000021  -0.000003   0.010770  -0.002544  -0.093871   0.003632
    25  H   -0.000001   0.000000  -0.000587   0.000099   0.008439  -0.000248
    26  H   -0.000006  -0.000005  -0.000875   0.000241  -0.001545   0.000302
    27  H   -0.000012   0.000003   0.005027  -0.001025  -0.007140  -0.000084
    28  C    0.000010   0.000001   0.011153  -0.000294  -0.081795   0.012219
    29  H    0.000005  -0.000001   0.001034  -0.000033  -0.005798   0.006467
    30  H   -0.000002   0.000002   0.000276  -0.000036  -0.004631   0.002745
    31  H    0.000000   0.000000  -0.000382   0.000015   0.013156   0.000256
             19         20         21         22         23         24
     1  C    0.000000   0.000000   0.000000   0.000000   0.000001   0.000000
     2  C    0.000000   0.000000   0.000000   0.000000   0.000000   0.000000
     3  C    0.000000   0.000000   0.000000   0.000000   0.000000   0.000000
     4  C    0.000012   0.000000   0.000000   0.000000  -0.000001  -0.000001
     5  C   -0.000754  -0.000019   0.000002   0.000000  -0.000009  -0.000083
     6  C   -0.000006   0.000002   0.000001  -0.000001   0.000007   0.000035
     7  H    0.000000   0.000000   0.000000   0.000000   0.000000   0.000000
     8  H    0.000000   0.000000   0.000000   0.000000   0.000000   0.000000
     9  H    0.000000   0.000000   0.000000   0.000000   0.000000   0.000000
    10  H    0.000001   0.000000   0.000000   0.000000   0.000000   0.000000
    11  H   -0.000138  -0.000025   0.000000   0.000000   0.000034   0.000110
    12  C    0.005289  -0.000083  -0.000027   0.000025   0.000259   0.000144
    13  O   -0.000422  -0.000003   0.000005   0.000000  -0.000005   0.000021
    14  H    0.000035   0.000000  -0.000001   0.000000   0.000001  -0.000003
    15  C   -0.171249   0.006462  -0.000070  -0.000688   0.004387   0.010770
    16  H    0.009581  -0.000092  -0.000041   0.000040   0.001005  -0.002544
    17  C   -0.012322  -0.110612  -0.000919   0.007645  -0.006061  -0.093871
    18  O   -0.131776   0.001112   0.002061  -0.000308  -0.000064   0.003632
    19  C    6.459439   0.212014  -0.046912  -0.040193  -0.046894   0.171189
    20  C    0.212014   5.396812   0.387335   0.389066   0.381615  -0.111032
    21  H   -0.046912   0.387335   0.514307  -0.025840  -0.025478   0.009451
    22  H   -0.040193   0.389066  -0.025840   0.524784  -0.026890  -0.006032
    23  H   -0.046894   0.381615  -0.025478  -0.026890   0.547665  -0.003548
    24  C    0.171189  -0.111032   0.009451  -0.006032  -0.003548   5.423083
    25  H   -0.038809  -0.006160  -0.000190   0.003938  -0.000171   0.384392
    26  H   -0.047977   0.008978  -0.000339  -0.000163  -0.000251   0.389918
    27  H   -0.045131  -0.003380  -0.000272  -0.000150   0.002618   0.377809
    28  C    0.196746  -0.101202  -0.003239  -0.004530   0.008557  -0.107699
    29  H   -0.041546  -0.003126   0.003269  -0.000358  -0.000126   0.008481
    30  H   -0.043659   0.008616  -0.000210  -0.000107  -0.000382  -0.003542
    31  H   -0.055905  -0.005931  -0.000550   0.002173  -0.000104  -0.005331
             25         26         27         28         29         30
     1  C    0.000000   0.000000   0.000005   0.000000   0.000000   0.000000
     2  C    0.000000   0.000000   0.000000   0.000000   0.000000   0.000000
     3  C    0.000000   0.000000   0.000000   0.000000   0.000000   0.000000
     4  C    0.000000   0.000000  -0.000002   0.000000   0.000000   0.000000
     5  C    0.000002   0.000021  -0.000088   0.000000  -0.000001   0.000000
     6  C   -0.000003  -0.000015   0.000115   0.000001   0.000000   0.000000
     7  H    0.000000   0.000000  -0.000001   0.000000   0.000000   0.000000
     8  H    0.000000   0.000000   0.000000   0.000000   0.000000   0.000000
     9  H    0.000000   0.000000   0.000000   0.000000   0.000000   0.000000
    10  H    0.000000   0.000000   0.000000   0.000000   0.000000   0.000000
    11  H   -0.000001  -0.000016   0.000486   0.000004   0.000000   0.000000
    12  C   -0.000010   0.000005   0.000891  -0.000357  -0.000077  -0.000040
    13  O   -0.000001  -0.000006  -0.000012   0.000010   0.000005  -0.000002
    14  H    0.000000  -0.000005   0.000003   0.000001  -0.000001   0.000002
    15  C   -0.000587  -0.000875   0.005027   0.011153   0.001034   0.000276
    16  H    0.000099   0.000241  -0.001025  -0.000294  -0.000033  -0.000036
    17  C    0.008439  -0.001545  -0.007140  -0.081795  -0.005798  -0.004631
    18  O   -0.000248   0.000302  -0.000084   0.012219   0.006467   0.002745
    19  C   -0.038809  -0.047977  -0.045131   0.196746  -0.041546  -0.043659
    20  C   -0.006160   0.008978  -0.003380  -0.101202  -0.003126   0.008616
    21  H   -0.000190  -0.000339  -0.000272  -0.003239   0.003269  -0.000210
    22  H    0.003938  -0.000163  -0.000150  -0.004530  -0.000358  -0.000107
    23  H   -0.000171  -0.000251   0.002618   0.008557  -0.000126  -0.000382
    24  C    0.384392   0.389918   0.377809  -0.107699   0.008481  -0.003542
    25  H    0.528411  -0.026532  -0.026586  -0.003284  -0.000125  -0.000337
    26  H   -0.026532   0.525446  -0.027443  -0.002786  -0.000155   0.003203
    27  H   -0.026586  -0.027443   0.561664   0.008706  -0.000372  -0.000130
    28  C   -0.003284  -0.002786   0.008706   5.319156   0.390587   0.391407
    29  H   -0.000125  -0.000155  -0.000372   0.390587   0.499172  -0.020846
    30  H   -0.000337   0.003203  -0.000130   0.391407  -0.020846   0.523482
    31  H    0.002560  -0.000423  -0.000078   0.390146  -0.029989  -0.030932
             31
     1  C    0.000000
     2  C    0.000000
     3  C    0.000000
     4  C    0.000000
     5  C    0.000000
     6  C    0.000000
     7  H    0.000000
     8  H    0.000000
     9  H    0.000000
    10  H    0.000000
    11  H    0.000000
    12  C    0.000014
    13  O    0.000000
    14  H    0.000000
    15  C   -0.000382
    16  H    0.000015
    17  C    0.013156
    18  O    0.000256
    19  C   -0.055905
    20  C   -0.005931
    21  H   -0.000550
    22  H    0.002173
    23  H   -0.000104
    24  C   -0.005331
    25  H    0.002560
    26  H   -0.000423
    27  H   -0.000078
    28  C    0.390146
    29  H   -0.029989
    30  H   -0.030932
    31  H    0.564918
 Mulliken atomic charges:
              1
     1  C   -0.182421
     2  C   -0.132785
     3  C   -0.177898
     4  C   -0.166111
     5  C   -0.039030
     6  C   -0.118515
     7  H    0.170912
     8  H    0.172515
     9  H    0.171942
    10  H    0.173381
    11  H    0.183727
    12  C    0.377786
    13  O   -0.689441
    14  H    0.384252
    15  C   -0.298539
    16  H    0.220882
    17  C    0.527334
    18  O   -0.492492
    19  C   -0.330614
    20  C   -0.450348
    21  H    0.187659
    22  H    0.177587
    23  H    0.163834
    24  C   -0.445350
    25  H    0.175205
    26  H    0.180418
    27  H    0.154570
    28  C   -0.423506
    29  H    0.193537
    30  H    0.175122
    31  H    0.156386
 Sum of Mulliken atomic charges =   0.00000
 Mulliken charges with hydrogens summed into heavy atoms:
              1
     1  C   -0.011509
     2  C    0.039730
     3  C   -0.005956
     4  C    0.007270
     5  C   -0.039030
     6  C    0.065212
    12  C    0.377786
    13  O   -0.305189
    15  C   -0.077657
    17  C    0.527334
    18  O   -0.492492
    19  C   -0.330614
    20  C    0.078732
    24  C    0.064844
    28  C    0.101539
 Sum of Mulliken charges with hydrogens summed into heavy atoms =   0.00000
 Electronic spatial extent (au):  <R**2>=           4496.5275
 Charge=              0.0000 electrons
 Dipole moment (field-independent basis, Debye):
    X=              3.7744    Y=             -3.7446    Z=             -1.1810  Tot=              5.4464
 Quadrupole moment (field-independent basis, Debye-Ang):
   XX=            -78.2120   YY=            -91.7578   ZZ=            -95.8997
   XY=             10.7883   XZ=             -0.8082   YZ=             -4.0817
 Traceless Quadrupole moment (field-independent basis, Debye-Ang):
   XX=             10.4111   YY=             -3.1346   ZZ=             -7.2765
   XY=             10.7883   XZ=             -0.8082   YZ=             -4.0817
 Octapole moment (field-independent basis, Debye-Ang**2):
  XXX=             48.4508  YYY=              0.0301  ZZZ=             -0.7006  XYY=             37.7672
  XXY=            -10.8876  XXZ=             -2.0498  XZZ=            -20.3068  YZZ=              9.8352
  YYZ=             -8.3172  XYZ=             -2.7432
 Hexadecapole moment (field-independent basis, Debye-Ang**3):
 XXXX=          -4624.3786 YYYY=           -861.1248 ZZZZ=           -283.3852 XXXY=             29.8917
 XXXZ=            -15.6542 YYYX=             37.2145 YYYZ=            -26.6580 ZZZX=             -1.9283
 ZZZY=             -1.3200 XXYY=           -936.9174 XXZZ=           -948.6204 YYZZ=           -202.9037
 XXYZ=             -7.5023 YYXZ=             -5.2492 ZZXY=             -0.6534
 N-N= 9.413806022684D+02 E-N=-3.404394762356D+03  KE= 6.509959135916D+02
 Calling FoFJK, ICntrl=      2127 FMM=F ISym2X=0 I1Cent= 0 IOpClX= 0 NMat=1 NMatS=1 NMatT=0.
 ***** Axes restored to original set *****
 -------------------------------------------------------------------
 Center     Atomic                   Forces (Hartrees/Bohr)
 Number     Number              X              Y              Z
 -------------------------------------------------------------------
      1        6           0.006694267    0.016131540    0.000671798
      2        6          -0.003097776    0.013870542    0.001124498
      3        6          -0.014773720    0.000872121    0.000502316
      4        6          -0.008704013   -0.015230272   -0.001108506
      5        6           0.000080893    0.029236672    0.001018437
      6        6           0.015271240   -0.011069393   -0.001572164
      7        1          -0.000377272    0.000307825    0.000069553
      8        1           0.000149225   -0.000011939    0.000023623
      9        1           0.000052054    0.000296645    0.000086946
     10        1           0.002280658   -0.002897969    0.001804462
     11        1           0.003945121   -0.004851907   -0.000563371
     12        6          -0.008349808   -0.002928577   -0.000428643
     13        8          -0.005554072   -0.056145137   -0.012860826
     14        1          -0.007830070    0.007606577    0.007760952
     15        6           0.016625971    0.048286157    0.005352816
     16        1           0.001611218    0.008700312    0.001681430
     17        6           0.037572848    0.015122043    0.005564048
     18        8          -0.042859983   -0.042061493   -0.006305803
     19        6           0.002044136    0.001502534   -0.004495265
     20        6           0.012010512    0.002708629   -0.010192182
     21        1           0.000645758    0.002087595    0.008546457
     22        1          -0.007963354   -0.000077356    0.000988396
     23        1          -0.001366157   -0.008737743    0.005960046
     24        6           0.008206632    0.006410513    0.011909732
     25        1          -0.007728591   -0.000503197   -0.002286066
     26        1           0.001345611   -0.000406262   -0.009329773
     27        1          -0.002789879   -0.008395567   -0.004443119
     28        6           0.007437088   -0.014627582    0.004338722
     29        1           0.001939321    0.006663136    0.001928805
     30        1           0.002356486    0.006497156   -0.004762683
     31        1          -0.008874347    0.001644399   -0.000984636
 -------------------------------------------------------------------
 Cartesian Forces:  Max     0.056145137 RMS     0.012902662

 GradGradGradGradGradGradGradGradGradGradGradGradGradGradGradGradGradGrad
 Berny optimization.
 Internal  Forces:  Max     0.059616949 RMS     0.009913148
 Search for a local minimum.
 Step number   1 out of a maximum of  164
 All quantities printed in internal units (Hartrees-Bohrs-Radians)
 Mixed Optimization -- RFO/linear search
 Second derivative matrix not updated -- first step.
     Eigenvalues ---    0.00237   0.00237   0.00237   0.00237   0.00237
     Eigenvalues ---    0.00237   0.00237   0.01295   0.01426   0.01459
     Eigenvalues ---    0.01506   0.02070   0.02070   0.02070   0.02070
     Eigenvalues ---    0.02070   0.02070   0.02070   0.02070   0.02681
     Eigenvalues ---    0.04739   0.05241   0.05241   0.05720   0.05720
     Eigenvalues ---    0.05720   0.05720   0.05720   0.05720   0.15006
     Eigenvalues ---    0.15006   0.16000   0.16000   0.16000   0.16000
     Eigenvalues ---    0.16000   0.16000   0.16000   0.16000   0.16000
     Eigenvalues ---    0.16000   0.16000   0.16000   0.16000   0.16000
     Eigenvalues ---    0.16000   0.16000   0.22000   0.22000   0.22000
     Eigenvalues ---    0.23485   0.25000   0.25000   0.25000   0.25000
     Eigenvalues ---    0.25000   0.28519   0.28519   0.28519   0.28519
     Eigenvalues ---    0.28519   0.28519   0.37230   0.37230   0.37230
     Eigenvalues ---    0.37230   0.37230   0.37230   0.37230   0.37230
     Eigenvalues ---    0.37230   0.37230   0.37230   0.37230   0.37230
     Eigenvalues ---    0.37230   0.37230   0.40989   0.41268   0.41459
     Eigenvalues ---    0.45389   0.45389   0.45389   0.45389   0.53930
     Eigenvalues ---    0.55473   0.802091000.000001000.000001000.00000
     Eigenvalues --- 1000.000001000.000001000.000001000.000001000.00000
     Eigenvalues --- 1000.000001000.000001000.000001000.000001000.00000
     Eigenvalues --- 1000.000001000.000001000.000001000.000001000.00000
     Eigenvalues --- 1000.000001000.000001000.000001000.000001000.00000
     Eigenvalues --- 1000.000001000.000001000.000001000.000001000.00000
     Eigenvalues --- 1000.000001000.000001000.000001000.000001000.00000
     Eigenvalues --- 1000.000001000.000001000.000001000.000001000.00000
     Eigenvalues --- 1000.000001000.000001000.000001000.000001000.00000
     Eigenvalues --- 1000.000001000.000001000.000001000.000001000.00000
     Eigenvalues --- 1000.000001000.000001000.000001000.000001000.00000
     Eigenvalues --- 1000.000001000.000001000.000001000.000001000.00000
     Eigenvalues --- 1000.000001000.000001000.000001000.000001000.00000
     Eigenvalues --- 1000.000001000.000001000.000001000.00000
 RFO step:  Lambda=-4.03282544D-02 EMin= 2.36824060D-03
 Linear search not attempted -- first point.
 Maximum step size (   0.300) exceeded in Quadratic search.
    -- Step size scaled by   0.801
 Iteration  1 RMS(Cart)=  0.08959043 RMS(Int)=  0.00254737
 Iteration  2 RMS(Cart)=  0.00623496 RMS(Int)=  0.00012683
 Iteration  3 RMS(Cart)=  0.00001111 RMS(Int)=  0.00012671
 Iteration  4 RMS(Cart)=  0.00000000 RMS(Int)=  0.00012671
 Variable       Old X    -DE/DX   Delta X   Delta X   Delta X     New X
                                 (Linear)    (Quad)   (Total)
    R1        2.64826  -0.01470   0.00000  -0.02424  -0.02426   2.62401
    R2        2.64826  -0.01798   0.00000  -0.02909  -0.02910   2.61916
    R3        2.02201  -0.00003   0.00000  -0.00005  -0.00005   2.02196
    R4        2.64826  -0.01870   0.00000  -0.03077  -0.03078   2.61749
    R5        2.02201   0.00007   0.00000   0.00013   0.00013   2.02214
    R6        2.64826  -0.01549   0.00000  -0.02515  -0.02514   2.62312
    R7        2.02201   0.00001   0.00000   0.00003   0.00003   2.02204
    R8        2.64826  -0.00903   0.00000  -0.01422  -0.01420   2.63406
    R9        2.02201  -0.00096   0.00000  -0.00185  -0.00185   2.02015
   R10        2.64826  -0.00625   0.00000  -0.00967  -0.00966   2.63860
   R11        2.91018  -0.02389   0.00000  -0.05878  -0.05878   2.85140
   R12        2.02201  -0.00447   0.00000  -0.00868  -0.00868   2.01333
   R13        2.70231  -0.04712   0.00000  -0.08384  -0.08384   2.61847
   R14        2.56096  -0.01719   0.00000  -0.02375  -0.02375   2.53720
   R15        1.81414  -0.01199   0.00000  -0.01614  -0.01614   1.79800
   R16        2.02201  -0.00799   0.00000  -0.01552  -0.01552   2.00649
   R17        2.91018  -0.03044   0.00000  -0.07491  -0.07491   2.83527
   R18        2.37803  -0.05962   0.00000  -0.05669  -0.05669   2.32134
   R19        2.91018  -0.00763   0.00000  -0.01879  -0.01879   2.89139
   R20        2.91018   0.00433   0.00000   0.01065   0.01065   2.92083
   R21        2.91018   0.00508   0.00000   0.01249   0.01249   2.92267
   R22        2.91018  -0.00051   0.00000  -0.00124  -0.00124   2.90893
   R23        2.02201   0.00793   0.00000   0.01540   0.01540   2.03740
   R24        2.02201   0.00782   0.00000   0.01518   0.01518   2.03718
   R25        2.02201   0.00899   0.00000   0.01745   0.01745   2.03946
   R26        2.02201   0.00775   0.00000   0.01504   0.01504   2.03704
   R27        2.02201   0.00833   0.00000   0.01618   0.01618   2.03819
   R28        2.02201   0.00692   0.00000   0.01343   0.01343   2.03544
   R29        2.02201   0.00571   0.00000   0.01108   0.01108   2.03308
   R30        2.02201   0.00710   0.00000   0.01379   0.01379   2.03579
   R31        2.02201   0.00905   0.00000   0.01757   0.01757   2.03958
    A1        2.09440   0.00269   0.00000   0.00707   0.00705   2.10144
    A2        2.09440  -0.00085   0.00000  -0.00155  -0.00154   2.09285
    A3        2.09440  -0.00184   0.00000  -0.00552  -0.00551   2.08889
    A4        2.09440  -0.00144   0.00000  -0.00661  -0.00664   2.08776
    A5        2.09440   0.00085   0.00000   0.00384   0.00385   2.09824
    A6        2.09440   0.00059   0.00000   0.00278   0.00279   2.09718
    A7        2.09440   0.00063   0.00000   0.00046   0.00046   2.09485
    A8        2.09440   0.00000   0.00000   0.00100   0.00100   2.09540
    A9        2.09440  -0.00062   0.00000  -0.00146  -0.00146   2.09293
   A10        2.09440   0.00504   0.00000   0.01577   0.01578   2.11017
   A11        2.09440  -0.00596   0.00000  -0.02161  -0.02164   2.07275
   A12        2.09440   0.00091   0.00000   0.00584   0.00581   2.10020
   A13        2.09440  -0.00951   0.00000  -0.02514  -0.02512   2.06928
   A14        2.09440  -0.00463   0.00000  -0.01332  -0.01334   2.08105
   A15        2.09440   0.01414   0.00000   0.03847   0.03845   2.13284
   A16        2.09440   0.00259   0.00000   0.00846   0.00846   2.10286
   A17        2.09440  -0.00575   0.00000  -0.02206  -0.02206   2.07234
   A18        2.09440   0.00317   0.00000   0.01360   0.01359   2.10799
   A19        2.09440  -0.03131   0.00000  -0.08638  -0.08639   2.00801
   A20        2.09440   0.02265   0.00000   0.06249   0.06248   2.15687
   A21        2.09440   0.00866   0.00000   0.02390   0.02389   2.11828
   A22        1.91063   0.01082   0.00000   0.04327   0.04327   1.95390
   A23        2.09440  -0.01576   0.00000  -0.04479  -0.04479   2.04961
   A24        2.09440   0.03953   0.00000   0.12162   0.12162   2.21601
   A25        2.09440  -0.02377   0.00000  -0.07683  -0.07683   2.01756
   A26        2.09440   0.01743   0.00000   0.04808   0.04786   2.14225
   A27        2.09440  -0.01267   0.00000  -0.03496  -0.03516   2.05923
   A28        2.09440  -0.00476   0.00000  -0.01313  -0.01332   2.08108
   A29        1.91063  -0.00306   0.00000  -0.01694  -0.01696   1.89367
   A30        1.91063   0.00277   0.00000   0.01445   0.01448   1.92511
   A31        1.91063  -0.00047   0.00000  -0.00453  -0.00455   1.90608
   A32        1.91063   0.00059   0.00000   0.00489   0.00493   1.91556
   A33        1.91063   0.00180   0.00000   0.00523   0.00518   1.91581
   A34        1.91063  -0.00163   0.00000  -0.00309  -0.00310   1.90753
   A35        1.91063   0.00404   0.00000   0.01656   0.01638   1.92702
   A36        1.91063   0.00028   0.00000  -0.00016  -0.00017   1.91046
   A37        1.91063   0.00718   0.00000   0.02956   0.02936   1.94000
   A38        1.91063  -0.00267   0.00000  -0.01239  -0.01238   1.89825
   A39        1.91063  -0.00486   0.00000  -0.01690  -0.01725   1.89339
   A40        1.91063  -0.00397   0.00000  -0.01667  -0.01670   1.89393
   A41        1.91063   0.00044   0.00000  -0.00027  -0.00028   1.91035
   A42        1.91063   0.00456   0.00000   0.01893   0.01865   1.92928
   A43        1.91063   0.00881   0.00000   0.03656   0.03625   1.94689
   A44        1.91063  -0.00329   0.00000  -0.01585  -0.01582   1.89481
   A45        1.91063  -0.00505   0.00000  -0.02159  -0.02163   1.88901
   A46        1.91063  -0.00547   0.00000  -0.01777  -0.01831   1.89232
   A47        1.91063   0.00485   0.00000   0.01957   0.01946   1.93009
   A48        1.91063   0.00509   0.00000   0.02006   0.01996   1.93059
   A49        1.91063  -0.00079   0.00000  -0.00303  -0.00303   1.90760
   A50        1.91063  -0.00505   0.00000  -0.02044  -0.02064   1.88999
   A51        1.91063  -0.00185   0.00000  -0.00676  -0.00676   1.90387
   A52        1.91063  -0.00226   0.00000  -0.00939  -0.00938   1.90125
    D1        0.00000   0.00011   0.00000   0.00153   0.00153   0.00152
    D2        3.14159  -0.00009   0.00000  -0.00125  -0.00126   3.14033
    D3        3.14159   0.00014   0.00000   0.00191   0.00193  -3.13966
    D4        0.00000  -0.00007   0.00000  -0.00087  -0.00085  -0.00085
    D5        0.00000   0.00011   0.00000   0.00150   0.00153   0.00153
    D6       -3.14159  -0.00003   0.00000  -0.00040  -0.00032   3.14127
    D7       -3.14159   0.00008   0.00000   0.00112   0.00112  -3.14047
    D8        0.00000  -0.00006   0.00000  -0.00077  -0.00073  -0.00073
    D9        0.00000  -0.00011   0.00000  -0.00147  -0.00148  -0.00148
   D10        3.14159  -0.00041   0.00000  -0.00546  -0.00545   3.13614
   D11       -3.14159   0.00010   0.00000   0.00131   0.00130  -3.14029
   D12        0.00000  -0.00020   0.00000  -0.00269  -0.00267  -0.00267
   D13        0.00000  -0.00012   0.00000  -0.00161  -0.00163  -0.00163
   D14       -3.14159  -0.00098   0.00000  -0.01288  -0.01278   3.12881
   D15       -3.14159   0.00019   0.00000   0.00238   0.00234  -3.13925
   D16        0.00000  -0.00068   0.00000  -0.00889  -0.00882  -0.00881
   D17        0.00000   0.00034   0.00000   0.00464   0.00460   0.00460
   D18       -3.14159  -0.00003   0.00000  -0.00067  -0.00058   3.14102
   D19       -3.14159   0.00120   0.00000   0.01591   0.01593  -3.12566
   D20        0.00000   0.00083   0.00000   0.01061   0.01075   0.01075
   D21        0.00000  -0.00033   0.00000  -0.00458  -0.00454  -0.00454
   D22        3.14159  -0.00019   0.00000  -0.00269  -0.00265   3.13894
   D23        3.14159   0.00004   0.00000   0.00072   0.00080  -3.14079
   D24        0.00000   0.00018   0.00000   0.00262   0.00269   0.00269
   D25        0.00000   0.00155   0.00000   0.02945   0.02956   0.02957
   D26       -3.14159   0.00208   0.00000   0.03717   0.03712  -3.10447
   D27       -3.14159   0.00119   0.00000   0.02415   0.02419  -3.11740
   D28        0.00000   0.00171   0.00000   0.03186   0.03175   0.03175
   D29        0.52360   0.00007   0.00000   0.00100   0.00083   0.52443
   D30       -2.61799  -0.00045   0.00000  -0.00672  -0.00655  -2.62454
   D31        0.00000  -0.00021   0.00000  -0.00323  -0.00339  -0.00339
   D32        3.14159  -0.00023   0.00000  -0.00355  -0.00371   3.13788
   D33        3.14159   0.00031   0.00000   0.00448   0.00464  -3.13696
   D34        0.00000   0.00029   0.00000   0.00416   0.00432   0.00431
   D35       -0.14626  -0.00200   0.00000  -0.03766  -0.03806  -0.18432
   D36        2.99533  -0.00001   0.00000  -0.00021   0.00020   2.99553
   D37        2.99533  -0.00203   0.00000  -0.03797  -0.03838   2.95695
   D38       -0.14626  -0.00003   0.00000  -0.00052  -0.00012  -0.14638
   D39        1.29975  -0.00169   0.00000  -0.03105  -0.03084   1.26891
   D40       -0.79465  -0.00223   0.00000  -0.03551  -0.03520  -0.82985
   D41       -2.88904  -0.00164   0.00000  -0.03779  -0.03746  -2.92651
   D42       -1.84185   0.00031   0.00000   0.00640   0.00604  -1.83580
   D43        2.34694  -0.00023   0.00000   0.00194   0.00168   2.34863
   D44        0.25255   0.00035   0.00000  -0.00034  -0.00058   0.25197
   D45        1.04720  -0.00058   0.00000  -0.00371  -0.00361   1.04359
   D46        3.14159  -0.00120   0.00000  -0.00885  -0.00885   3.13274
   D47       -1.04720  -0.00149   0.00000  -0.01126  -0.01134  -1.05853
   D48        3.14159   0.00130   0.00000   0.00660   0.00668  -3.13491
   D49       -1.04720   0.00068   0.00000   0.00147   0.00144  -1.04576
   D50        1.04720   0.00038   0.00000  -0.00095  -0.00105   1.04615
   D51       -1.04720   0.00078   0.00000   0.00901   0.00912  -1.03808
   D52        1.04720   0.00015   0.00000   0.00388   0.00387   1.05107
   D53        3.14159  -0.00014   0.00000   0.00146   0.00139  -3.14021
   D54        3.14159  -0.00016   0.00000   0.00329   0.00332  -3.13827
   D55       -1.04720  -0.00113   0.00000  -0.00469  -0.00482  -1.05202
   D56        1.04720   0.00035   0.00000   0.00751   0.00767   1.05486
   D57        1.04720   0.00153   0.00000   0.01220   0.01218   1.05938
   D58        3.14159   0.00056   0.00000   0.00421   0.00403  -3.13756
   D59       -1.04720   0.00205   0.00000   0.01642   0.01652  -1.03068
   D60       -1.04720  -0.00004   0.00000   0.00469   0.00472  -1.04248
   D61        1.04720  -0.00101   0.00000  -0.00329  -0.00343   1.04377
   D62        3.14159   0.00047   0.00000   0.00891   0.00906  -3.13253
   D63       -1.04720   0.00181   0.00000   0.01245   0.01241  -1.03478
   D64        1.04720   0.00172   0.00000   0.01168   0.01175   1.05895
   D65        3.14159   0.00159   0.00000   0.01061   0.01062  -3.13097
   D66        1.04720  -0.00113   0.00000  -0.00787  -0.00794   1.03926
   D67        3.14159  -0.00122   0.00000  -0.00864  -0.00860   3.13299
   D68       -1.04720  -0.00135   0.00000  -0.00971  -0.00973  -1.05693
   D69        3.14159  -0.00029   0.00000  -0.00057  -0.00062   3.14097
   D70       -1.04720  -0.00039   0.00000  -0.00134  -0.00128  -1.04848
   D71        1.04720  -0.00052   0.00000  -0.00242  -0.00242   1.04478
         Item               Value     Threshold  Converged?
 Maximum Force            0.059617     0.000450     NO 
 RMS     Force            0.009913     0.000300     NO 
 Maximum Displacement     0.348293     0.001800     NO 
 RMS     Displacement     0.090280     0.001200     NO 
 Predicted change in Energy=-2.118091D-02
 GradGradGradGradGradGradGradGradGradGradGradGradGradGradGradGradGradGrad

                          Input orientation:                          
 ---------------------------------------------------------------------
 Center     Atomic      Atomic             Coordinates (Angstroms)
 Number     Number       Type             X           Y           Z
 ---------------------------------------------------------------------
      1          6           0        2.432145   -1.496915   -0.303133
      2          6           0        3.809657   -1.660926   -0.363712
      3          6           0        4.633682   -0.548078   -0.330617
      4          6           0        4.081868    0.722333   -0.239152
      5          6           0        2.700614    0.900433   -0.181385
      6          6           0        1.880062   -0.228898   -0.211844
      7          1           0        1.791298   -2.353425   -0.326563
      8          1           0        4.232798   -2.641336   -0.432991
      9          1           0        5.696309   -0.666635   -0.371831
     10          1           0        4.737014    1.566305   -0.203133
     11          1           0        0.819840   -0.133836   -0.167256
     12          6           0        2.141341    2.298300   -0.081635
     13          8           0        3.087188    3.310834   -0.093039
     14          1           0        3.858922    3.070978   -0.595204
     15          6           0        0.830049    2.567955    0.020611
     16          1           0        0.160283    1.744085    0.027549
     17          6           0        0.193080    3.922117    0.128269
     18          8           0        0.840940    4.947517    0.322708
     19          6           0       -1.331995    4.007335    0.039033
     20          6           0       -1.931887    3.449534    1.349752
     21          1           0       -1.585382    4.021785    2.195247
     22          1           0       -3.007341    3.510569    1.307053
     23          1           0       -1.652804    2.417541    1.497564
     24          6           0       -1.846071    3.182180   -1.163819
     25          1           0       -2.920355    3.254311   -1.215816
     26          1           0       -1.431618    3.558547   -2.085705
     27          1           0       -1.582231    2.141962   -1.071656
     28          6           0       -1.747521    5.478820   -0.138857
     29          1           0       -1.400310    6.072609    0.688390
     30          1           0       -1.329170    5.884190   -1.045071
     31          1           0       -2.823712    5.541713   -0.191228
 ---------------------------------------------------------------------
                    Distance matrix (angstroms):
                    1          2          3          4          5
     1  C    0.000000
     2  C    1.388564   0.000000
     3  C    2.397459   1.385114   0.000000
     4  C    2.765997   2.401986   1.388095   0.000000
     5  C    2.415403   2.797102   2.420166   1.393886   0.000000
     6  C    1.386000   2.407718   2.774600   2.398653   1.396288
     7  H    1.069973   2.134176   3.367259   3.835966   3.381645
     8  H    2.137502   1.070071   2.133756   3.372628   3.867172
     9  H    3.368806   2.132636   1.070015   2.133836   3.386172
    10  H    3.834805   3.361665   2.120742   1.069019   2.142611
    11  H    2.115650   3.362976   3.839749   3.373281   2.146444
    12  C    3.812778   4.305614   3.791520   2.504821   1.508897
    13  O    4.856714   5.031264   4.164048   2.776883   2.442801
    14  H    4.794439   4.737820   3.710503   2.385920   2.494833
    15  C    4.381174   5.187408   4.929569   3.748083   2.514050
    16  H    3.971748   5.006508   5.039206   4.061273   2.684900
    17  C    5.879237   6.670236   6.317608   5.049385   3.938806
    18  O    6.667406   7.277085   6.709195   5.354576   4.482342
    19  C    6.677020   7.663418   7.515167   6.338655   5.095426
    20  C    6.800306   7.875157   7.868370   6.791723   5.504759
    21  H    7.269008   8.243054   8.120370   6.995028   5.810421
    22  H    7.566743   8.718216   8.805669   7.773152   6.450505
    23  H    5.937363   7.066592   7.187284   6.227068   4.906398
    24  C    6.398268   7.488866   7.523048   6.484313   5.181109
    25  H    7.215011   8.377272   8.503247   7.509721   6.181107
    26  H    6.607868   7.594677   7.532103   6.469343   5.269473
    27  H    5.472409   6.635933   6.813445   5.898342   4.547169
    28  C    8.133724   9.050346   8.779523   7.524361   6.383521
    29  H    8.542161   9.383935   9.015594   7.716221   6.657739
    30  H    8.317371   9.154265   8.800007   7.521543   6.467067
    31  H    8.785148   9.793332   9.629004   8.421150   7.215245
                    6          7          8          9         10
     6  C    0.000000
     7  H    2.129473   0.000000
     8  H    3.377000   2.460720   0.000000
     9  H    3.844600   4.253989   2.458668   0.000000
    10  H    3.374166   4.904768   4.243973   2.436130   0.000000
    11  H    1.065409   2.428103   4.243401   4.909754   4.270365
    12  C    2.544002   4.671302   5.375653   4.638195   2.699647
[...]
 Alpha virt. eigenvalues --    0.90616   0.90822   0.91968   0.93100   0.95363
 Alpha virt. eigenvalues --    0.95572   0.98189   1.01803   1.04078   1.05041
 Alpha virt. eigenvalues --    1.08250   1.10623   1.11630   1.12198   1.15117
 Alpha virt. eigenvalues --    1.15850   1.16811   1.17413   1.19116   1.21403
 Alpha virt. eigenvalues --    1.23887   1.25028   1.26294   1.28682   1.32072
 Alpha virt. eigenvalues --    1.36748   1.44018   1.46177   1.50632   1.56040
 Alpha virt. eigenvalues --    1.92284   1.96979   2.49646   2.54891   2.59567
 Alpha virt. eigenvalues --    2.60319   2.60787   2.61703   2.62453   2.63184
 Alpha virt. eigenvalues --    2.65791   2.66310   2.68004   2.68638   2.69036
 Alpha virt. eigenvalues --    2.69588   2.73228   2.85332   2.91745   2.94284
 Alpha virt. eigenvalues --    2.95042   2.97678   3.02009   3.03668   3.05357
 Alpha virt. eigenvalues --    3.11564   3.12084   3.18095   3.19872   3.20531
 Alpha virt. eigenvalues --    3.21783   3.24188   3.27790   3.28661   3.29490
 Alpha virt. eigenvalues --    3.31173   3.33185   3.34183   3.35560   3.37022
 Alpha virt. eigenvalues --    3.40009   3.42357   3.43731   3.47518   3.49143
 Alpha virt. eigenvalues --    3.51871   3.53970   3.54905   3.57036   3.59035
 Alpha virt. eigenvalues --    3.60474   3.63467   3.66778   3.69708   3.71934
 Alpha virt. eigenvalues --    3.75022   3.86710   5.38849   5.44171   5.47379
 Alpha virt. eigenvalues --    5.53817   5.60006   5.71029  24.25244  24.41929
 Alpha virt. eigenvalues --   24.48921  24.51780  24.55304  24.63181  24.67542
 Alpha virt. eigenvalues --   24.72264  24.75202  24.78017  24.79506  24.86687
 Alpha virt. eigenvalues --   25.03636  51.56348  51.63653
          Condensed to atoms (all electrons):
              1          2          3          4          5          6
     1  C    5.060782   0.493769  -0.073250  -0.029592  -0.066983   0.456355
     2  C    0.493769   4.999750   0.498498  -0.091584  -0.011322  -0.087778
     3  C   -0.073250   0.498498   5.046729   0.465868  -0.074274  -0.034687
     4  C   -0.029592  -0.091584   0.465868   5.133579   0.430190  -0.069207
     5  C   -0.066983  -0.011322  -0.074274   0.430190   5.540359   0.438272
     6  C    0.456355  -0.087778  -0.034687  -0.069207   0.438272   5.050547
     7  H    0.399635  -0.039694   0.006040  -0.000405   0.006401  -0.038526
     8  H   -0.041938   0.401078  -0.041995   0.007795  -0.001613   0.007646
     9  H    0.005921  -0.038930   0.399363  -0.038915   0.006064  -0.000299
    10  H   -0.000005   0.004466  -0.025804   0.395526  -0.052059   0.004498
    11  H   -0.032027   0.004722  -0.000315   0.005500  -0.045655   0.395042
    12  C    0.006109   0.002138   0.004108  -0.060528   0.225718  -0.027601
    13  O   -0.000279   0.000048   0.000578   0.011582  -0.119071   0.004505
    14  H   -0.000196  -0.000019  -0.000771  -0.001956   0.009209   0.000954
    15  C    0.000539   0.000118  -0.000811  -0.002288  -0.117944   0.011631
    16  H   -0.000373   0.000035  -0.000084   0.000102  -0.001141   0.001643
    17  C   -0.000010  -0.000001   0.000010  -0.000360   0.006733   0.000047
    18  O    0.000000   0.000000   0.000000   0.000002   0.000168   0.000006
    19  C    0.000000   0.000000   0.000000   0.000008  -0.000835   0.000056
    20  C    0.000000   0.000000   0.000000  -0.000001  -0.000079   0.000005
    21  H    0.000000   0.000000   0.000000  -0.000002   0.000013  -0.000003
    22  H    0.000000   0.000000   0.000000   0.000000   0.000003  -0.000001
    23  H    0.000000   0.000000   0.000001  -0.000001   0.000034  -0.000010
    24  C    0.000000   0.000000   0.000000   0.000000  -0.000028  -0.000018
    25  H    0.000000   0.000000   0.000000   0.000000  -0.000001   0.000001
    26  H    0.000000   0.000000   0.000000   0.000000  -0.000007   0.000002
    27  H    0.000005   0.000000   0.000000   0.000002  -0.000055   0.000118
    28  C    0.000000   0.000000   0.000000   0.000000   0.000001   0.000000
    29  H    0.000000   0.000000   0.000000   0.000000  -0.000001   0.000000
    30  H    0.000000   0.000000   0.000000   0.000000   0.000000   0.000000
    31  H    0.000000   0.000000   0.000000   0.000000   0.000000   0.000000
              7          8          9         10         11         12
     1  C    0.399635  -0.041938   0.005921  -0.000005  -0.032027   0.006109
     2  C   -0.039694   0.401078  -0.038930   0.004466   0.004722   0.002138
     3  C    0.006040  -0.041995   0.399363  -0.025804  -0.000315   0.004108
     4  C   -0.000405   0.007795  -0.038915   0.395526   0.005500  -0.060528
     5  C    0.006401  -0.001613   0.006064  -0.052059  -0.045655   0.225718
     6  C   -0.038526   0.007646  -0.000299   0.004498   0.395042  -0.027601
     7  H    0.503725  -0.004406  -0.000208   0.000021  -0.004002  -0.000328
     8  H   -0.004406   0.504572  -0.004360  -0.000152  -0.000150  -0.000031
     9  H   -0.000208  -0.004360   0.502863  -0.003788   0.000020  -0.000348
    10  H    0.000021  -0.000152  -0.003788   0.472249  -0.000198  -0.000321
    11  H   -0.004002  -0.000150   0.000020  -0.000198   0.478031  -0.000234
    12  C   -0.000328  -0.000031  -0.000348  -0.000321  -0.000234   4.855299
    13  O    0.000001   0.000001  -0.000012   0.008226   0.000072   0.269392
    14  H    0.000001   0.000000   0.000003   0.000507  -0.000040  -0.038278
    15  C    0.000012   0.000000   0.000010   0.000488   0.004803   0.319006
    16  H    0.000011  -0.000001   0.000001  -0.000031   0.001242  -0.047139
    17  C    0.000000   0.000000   0.000000  -0.000059  -0.000205  -0.018638
    18  O    0.000000   0.000000   0.000000   0.000002  -0.000008   0.017449
    19  C    0.000000   0.000000   0.000000   0.000001   0.000007   0.006836
    20  C    0.000000   0.000000   0.000000  -0.000001  -0.000009   0.000185
    21  H    0.000000   0.000000   0.000000  -0.000001  -0.000001   0.000049
    22  H    0.000000   0.000000   0.000000   0.000000   0.000000   0.000060
    23  H    0.000000   0.000000   0.000000   0.000000  -0.000015   0.000673
    24  C    0.000000   0.000000   0.000000   0.000000   0.000068  -0.000407
    25  H    0.000000   0.000000   0.000000   0.000000   0.000002   0.000014
    26  H    0.000000   0.000000   0.000000   0.000000   0.000008  -0.000112
    27  H   -0.000001   0.000000   0.000000   0.000000   0.000218   0.000521
    28  C    0.000000   0.000000   0.000000   0.000000   0.000000  -0.000464
    29  H    0.000000   0.000000   0.000000   0.000000   0.000000  -0.000070
    30  H    0.000000   0.000000   0.000000   0.000000   0.000000  -0.000055
    31  H    0.000000   0.000000   0.000000   0.000000   0.000000   0.000016
             13         14         15         16         17         18
     1  C   -0.000279  -0.000196   0.000539  -0.000373  -0.000010   0.000000
     2  C    0.000048  -0.000019   0.000118   0.000035  -0.000001   0.000000
     3  C    0.000578  -0.000771  -0.000811  -0.000084   0.000010   0.000000
     4  C    0.011582  -0.001956  -0.002288   0.000102  -0.000360   0.000002
     5  C   -0.119071   0.009209  -0.117944  -0.001141   0.006733   0.000168
     6  C    0.004505   0.000954   0.011631   0.001643   0.000047   0.000006
     7  H    0.000001   0.000001   0.000012   0.000011   0.000000   0.000000
     8  H    0.000001   0.000000   0.000000  -0.000001   0.000000   0.000000
     9  H   -0.000012   0.000003   0.000010   0.000001   0.000000   0.000000
    10  H    0.008226   0.000507   0.000488  -0.000031  -0.000059   0.000002
    11  H    0.000072  -0.000040   0.004803   0.001242  -0.000205  -0.000008
    12  C    0.269392  -0.038278   0.319006  -0.047139  -0.018638   0.017449
    13  O    8.381912   0.261695  -0.113917   0.004393   0.003920  -0.005913
    14  H    0.261695   0.350091   0.009427  -0.000159  -0.000214   0.000435
    15  C   -0.113917   0.009427   6.092080   0.385508   0.064270  -0.156967
    16  H    0.004393  -0.000159   0.385508   0.469945  -0.025569   0.002559
    17  C    0.003920  -0.000214   0.064270  -0.025569   5.025163   0.625758
    18  O   -0.005913   0.000435  -0.156967   0.002559   0.625758   8.108317
    19  C   -0.000123   0.000036  -0.201901   0.008723   0.043499  -0.137260
    20  C    0.000010  -0.000001   0.009213  -0.001553  -0.095507   0.002902
    21  H   -0.000002   0.000000  -0.000630   0.000074  -0.001573   0.000697
    22  H    0.000000   0.000000  -0.000751  -0.000003   0.008132  -0.000276
    23  H   -0.000009   0.000001   0.003444   0.000657  -0.007180  -0.000026
    24  C   -0.000005  -0.000002   0.011213  -0.001698  -0.099720   0.002478
    25  H    0.000000   0.000000  -0.000675   0.000038   0.007720  -0.000290
    26  H    0.000002  -0.000001  -0.000728   0.000093  -0.000922   0.001100
    27  H   -0.000007   0.000000   0.004523   0.001228  -0.007478  -0.000096
    28  C    0.000004  -0.000001   0.013389   0.000024  -0.084344   0.014826
    29  H   -0.000003  -0.000001   0.000488  -0.000040  -0.005310   0.003609
    30  H    0.000002   0.000000   0.000686  -0.000031  -0.005527   0.004576
    31  H    0.000000   0.000000  -0.000431   0.000005   0.013206   0.000209
             19         20         21         22         23         24
     1  C    0.000000   0.000000   0.000000   0.000000   0.000000   0.000000
     2  C    0.000000   0.000000   0.000000   0.000000   0.000000   0.000000
     3  C    0.000000   0.000000   0.000000   0.000000   0.000001   0.000000
     4  C    0.000008  -0.000001  -0.000002   0.000000  -0.000001   0.000000
     5  C   -0.000835  -0.000079   0.000013   0.000003   0.000034  -0.000028
     6  C    0.000056   0.000005  -0.000003  -0.000001  -0.000010  -0.000018
     7  H    0.000000   0.000000   0.000000   0.000000   0.000000   0.000000
     8  H    0.000000   0.000000   0.000000   0.000000   0.000000   0.000000
     9  H    0.000000   0.000000   0.000000   0.000000   0.000000   0.000000
    10  H    0.000001  -0.000001  -0.000001   0.000000   0.000000   0.000000
    11  H    0.000007  -0.000009  -0.000001   0.000000  -0.000015   0.000068
    12  C    0.006836   0.000185   0.000049   0.000060   0.000673  -0.000407
    13  O   -0.000123   0.000010  -0.000002   0.000000  -0.000009  -0.000005
    14  H    0.000036  -0.000001   0.000000   0.000000   0.000001  -0.000002
    15  C   -0.201901   0.009213  -0.000630  -0.000751   0.003444   0.011213
    16  H    0.008723  -0.001553   0.000074  -0.000003   0.000657  -0.001698
    17  C    0.043499  -0.095507  -0.001573   0.008132  -0.007180  -0.099720
    18  O   -0.137260   0.002902   0.000697  -0.000276  -0.000026   0.002478
    19  C    6.424154   0.188042  -0.045223  -0.040137  -0.039151   0.196320
    20  C    0.188042   5.407753   0.387468   0.384873   0.380748  -0.104802
    21  H   -0.045223   0.387468   0.524195  -0.028032  -0.026602   0.008361
    22  H   -0.040137   0.384873  -0.028032   0.534274  -0.027971  -0.005635
    23  H   -0.039151   0.380748  -0.026602  -0.027971   0.541363  -0.003218
    24  C    0.196320  -0.104802   0.008361  -0.005635  -0.003218   5.409198
    25  H   -0.039944  -0.005564  -0.000212   0.003722  -0.000105   0.386831
    26  H   -0.045867   0.008441  -0.000299  -0.000201  -0.000177   0.386327
    27  H   -0.040455  -0.003220  -0.000173  -0.000156   0.001998   0.379761
    28  C    0.196808  -0.104180  -0.002320  -0.004192   0.007365  -0.103989
    29  H   -0.039964  -0.003490   0.002935  -0.000335  -0.000088   0.008211
    30  H   -0.039915   0.008164  -0.000188  -0.000095  -0.000312  -0.003387
    31  H   -0.056680  -0.006043  -0.000388   0.002551  -0.000077  -0.006106
             25         26         27         28         29         30
     1  C    0.000000   0.000000   0.000005   0.000000   0.000000   0.000000
     2  C    0.000000   0.000000   0.000000   0.000000   0.000000   0.000000
     3  C    0.000000   0.000000   0.000000   0.000000   0.000000   0.000000
     4  C    0.000000   0.000000   0.000002   0.000000   0.000000   0.000000
     5  C   -0.000001  -0.000007  -0.000055   0.000001  -0.000001   0.000000
     6  C    0.000001   0.000002   0.000118   0.000000   0.000000   0.000000
     7  H    0.000000   0.000000  -0.000001   0.000000   0.000000   0.000000
     8  H    0.000000   0.000000   0.000000   0.000000   0.000000   0.000000
     9  H    0.000000   0.000000   0.000000   0.000000   0.000000   0.000000
    10  H    0.000000   0.000000   0.000000   0.000000   0.000000   0.000000
    11  H    0.000002   0.000008   0.000218   0.000000   0.000000   0.000000
    12  C    0.000014  -0.000112   0.000521  -0.000464  -0.000070  -0.000055
    13  O    0.000000   0.000002  -0.000007   0.000004  -0.000003   0.000002
    14  H    0.000000  -0.000001   0.000000  -0.000001  -0.000001   0.000000
    15  C   -0.000675  -0.000728   0.004523   0.013389   0.000488   0.000686
    16  H    0.000038   0.000093   0.001228   0.000024  -0.000040  -0.000031
    17  C    0.007720  -0.000922  -0.007478  -0.084344  -0.005310  -0.005527
    18  O   -0.000290   0.001100  -0.000096   0.014826   0.003609   0.004576
    19  C   -0.039944  -0.045867  -0.040455   0.196808  -0.039964  -0.039915
    20  C   -0.005564   0.008441  -0.003220  -0.104180  -0.003490   0.008164
    21  H   -0.000212  -0.000299  -0.000173  -0.002320   0.002935  -0.000188
    22  H    0.003722  -0.000201  -0.000156  -0.004192  -0.000335  -0.000095
    23  H   -0.000105  -0.000177   0.001998   0.007365  -0.000088  -0.000312
    24  C    0.386831   0.386327   0.379761  -0.103989   0.008211  -0.003387
    25  H    0.528382  -0.027607  -0.027656  -0.004048  -0.000063  -0.000330
    26  H   -0.027607   0.524984  -0.027370  -0.002027  -0.000210   0.002952
    27  H   -0.027656  -0.027370   0.549902   0.007464  -0.000311  -0.000098
    28  C   -0.004048  -0.002027   0.007464   5.320308   0.390890   0.390311
    29  H   -0.000063  -0.000210  -0.000311   0.390890   0.515331  -0.023408
    30  H   -0.000330   0.002952  -0.000098   0.390311  -0.023408   0.514114
    31  H    0.002500  -0.000411  -0.000112   0.390903  -0.030777  -0.031141
             31
     1  C    0.000000
     2  C    0.000000
     3  C    0.000000
     4  C    0.000000
     5  C    0.000000
     6  C    0.000000
     7  H    0.000000
     8  H    0.000000
     9  H    0.000000
    10  H    0.000000
    11  H    0.000000
    12  C    0.000016
    13  O    0.000000
    14  H    0.000000
    15  C   -0.000431
    16  H    0.000005
    17  C    0.013206
    18  O    0.000209
    19  C   -0.056680
    20  C   -0.006043
    21  H   -0.000388
    22  H    0.002551
    23  H   -0.000077
    24  C   -0.006106
    25  H    0.002500
    26  H   -0.000411
    27  H   -0.000112
    28  C    0.390903
    29  H   -0.030777
    30  H   -0.031141
    31  H    0.568427
 Mulliken atomic charges:
              1
     1  C   -0.178461
     2  C   -0.135293
     3  C   -0.169204
     4  C   -0.155315
     5  C   -0.172096
     6  C   -0.113198
     7  H    0.171724
     8  H    0.173555
     9  H    0.172615
    10  H    0.196432
    11  H    0.193125
    12  C    0.486982
    13  O   -0.706999
    14  H    0.409281
    15  C   -0.333803
    16  H    0.201540
    17  C    0.554158
    18  O   -0.484257
    19  C   -0.337036
    20  C   -0.453353
    21  H    0.181856
    22  H    0.174170
    23  H    0.168660
    24  C   -0.459754
    25  H    0.177284
    26  H    0.182029
    27  H    0.161449
    28  C   -0.426728
    29  H    0.182606
    30  H    0.183682
    31  H    0.154349
 Sum of Mulliken atomic charges =   0.00000
 Mulliken charges with hydrogens summed into heavy atoms:
              1
     1  C   -0.006737
     2  C    0.038263
     3  C    0.003410
     4  C    0.041117
     5  C   -0.172096
     6  C    0.079927
    12  C    0.486982
    13  O   -0.297718
    15  C   -0.132264
    17  C    0.554158
    18  O   -0.484257
    19  C   -0.337036
    20  C    0.071334
    24  C    0.061008
    28  C    0.093908
 Sum of Mulliken charges with hydrogens summed into heavy atoms =   0.00000
 Electronic spatial extent (au):  <R**2>=           4364.5351
 Charge=              0.0000 electrons
 Dipole moment (field-independent basis, Debye):
    X=              4.3501    Y=             -3.2588    Z=              0.7378  Tot=              5.4852
 Quadrupole moment (field-independent basis, Debye-Ang):
   XX=            -80.5424   YY=            -93.0829   ZZ=            -92.8924
   XY=              9.8880   XZ=             -2.6985   YZ=              4.4223
 Traceless Quadrupole moment (field-independent basis, Debye-Ang):
   XX=              8.2968   YY=             -4.2437   ZZ=             -4.0531
   XY=              9.8880   XZ=             -2.6985   YZ=              4.4223
 Octapole moment (field-independent basis, Debye-Ang**2):
  XXX=             48.9950  YYY=              5.6902  ZZZ=             -5.4770  XYY=             30.1788
  XXY=            -15.7799  XXZ=             18.3318  XZZ=             -4.9509  YZZ=              6.8179
  YYZ=             -3.3112  XYZ=              0.9718
 Hexadecapole moment (field-independent basis, Debye-Ang**3):
 XXXX=          -4534.6991 YYYY=           -793.7116 ZZZZ=           -399.1736 XXXY=            -13.7310
 XXXZ=             64.6667 YYYX=             38.8974 YYYZ=              1.4229 ZZZX=              8.3851
 ZZZY=             -0.7167 XXYY=           -907.6055 XXZZ=           -887.0259 YYZZ=           -192.2279
 XXYZ=             44.9594 YYXZ=            -33.0284 ZZXY=             11.2918
 N-N= 9.502531279380D+02 E-N=-3.422653156308D+03  KE= 6.516138648007D+02
 1|1|UNPC-DESKTOP-K2VF0AK|FOpt|RHF|6-311G|C13H16O2|MELIH|27-Nov-2024|0|
 |# opt hf/6-311g geom=connectivity||Title Card Required||0,1|C,2.60999
 10393,-1.3885797625,-0.949983319|C,3.7530164666,-1.6364003708,-0.20447
 16395|C,4.3642320804,-0.5990807985,0.4840289815|C,3.8354678661,0.67996
 66009,0.4268764268|C,2.6829643527,0.9362344,-0.3153572155|C,2.07844099
 36,-0.1102549763,-1.0066781196|H,2.1397474493,-2.1831629096,-1.4913674
 485|H,4.1633708424,-2.6240687441,-0.1625860516|H,5.242433975,-0.784943
 9463,1.0669648842|H,4.3001936283,1.4712396782,0.9785636845|H,1.2096221
 807,0.0808304154,-1.600852437|C,2.1284098346,2.3120550876,-0.362436745
 4|O,3.055076035,3.3117398276,-0.4303062607|H,3.883412433,3.0582953073,
 -0.8114624863|C,0.8253732573,2.5774827107,-0.2692225108|H,0.188453849,
 1.7401438056,-0.0910243006|C,0.1729019939,3.8954066598,-0.3642826279|O
 ,0.7520388995,4.8902556085,-0.7723336783|C,-1.3016499774,3.9793794173,
 0.0514460243|C,-1.4561787009,3.5109241261,1.512841436|H,-0.8497110171,
 4.1128346729,2.1770961127|H,-2.4890653254,3.6114055504,1.8204574254|H,
 -1.1711919163,2.4765806398,1.6455640953|C,-2.1530514997,3.0903814474,-
 0.8805093871|H,-3.1994882116,3.1946995837,-0.6249719524|H,-2.031040270
 1,3.3864230946,-1.9144248896|H,-1.899811232,2.0423568445,-0.7973639346
 |C,-1.7826560614,5.4319921543,-0.0669531565|H,-1.2041082505,6.08740795
 01,0.5667894663|H,-1.6875034155,5.7942946738,-1.0792668182|H,-2.822998
 1088,5.4960655515,0.2277560823||Version=IA32W-G09RevA.02|State=1-A|HF=
 -651.1822917|RMSD=4.440e-009|RMSF=8.945e-007|Dipole=0.2892777,-2.13159
 38,0.1724523|Quadrupole=8.7764293,-6.2255205,-2.5509088,-4.8597896,0.9
 044084,3.4411774|PG=C01 [X(C13H16O2)]||@


 WHEN YOU REACH FOR THE STARS, YOU MAY NOT QUITE GET ONE,
 BUT YOU WON'T COME UP WITH A HANDFUL OF MUD, EITHER.

                                         -- LEO BURNETT (AD AGENCY HEAD)
 Job cpu time:  0 days  0 hours 25 minutes 29.0 seconds.
 File lengths (MBytes):  RWF=     42 Int=      0 D2E=      0 Chk=      6 Scr=      1
 Normal termination of Gaussian 09 at Wed Nov 27 20:38:55 2024.
