 Entering Link 1 = C:\G09W\l1.exe PID=      5536.
  
 Copyright (c) 1988,1990,1992,1993,1995,1998,2003,2009, Gaussian, Inc.
                  All Rights Reserved.
  
 This is part of the Gaussian(R) 09 program.  It is based on
 the Gaussian(R) 03 system (copyright 2003, Gaussian, Inc.),
 the Gaussian(R) 98 system (copyright 1998, Gaussian, Inc.),
 the Gaussian(R) 94 system (copyright 1995, Gaussian, Inc.),
 the Gaussian 92(TM) system (copyright 1992, Gaussian, Inc.),
 the Gaussian 90(TM) system (copyright 1990, Gaussian, Inc.),
 the Gaussian 88(TM) system (copyright 1988, Gaussian, Inc.),
 the Gaussian 86(TM) system (copyright 1986, Carnegie Mellon
 University), and the Gaussian 82(TM) system (copyright 1983,
 Carnegie Mellon University). Gaussian is a federally registered
 trademark of Gaussian, Inc.
  
 This software contains proprietary and confidential information,
 including trade secrets, belonging to Gaussian, Inc.
  
 This software is provided under written license and may be
 used, copied, transmitted, or stored only in accord with that
 written license.
  
 The following legend is applicable only to US Government
 contracts under FAR:
  
                    RESTRICTED RIGHTS LEGEND
  
 Use, reproduction and disclosure by the US Government is
 subject to restrictions as set forth in subparagraphs (a)
 and (c) of the Commercial Computer Software - Restricted
 Rights clause in FAR 52.227-19.
  
 Gaussian, Inc.
 340 Quinnipiac St., Bldg. 40, Wallingford CT 06492
  
  
 ---------------------------------------------------------------
 Warning -- This program may not be used in any manner that
 competes with the business of Gaussian, Inc. or will provide
 assistance to any competitor of Gaussian, Inc.  The licensee
 of this program is prohibited from giving any competitor of
 Gaussian, Inc. access to this program.  By using this program,
 the user acknowledges that Gaussian, Inc. is engaged in the
 business of creating and licensing software in the field of
 computational chemistry and represents and warrants to the
 licensee that it is not a competitor of Gaussian, Inc. and that
 it will not use this program in any manner prohibited above.
 ---------------------------------------------------------------
  

 Cite this work as:
 Gaussian 09, Revision A.02,
 M. J. Frisch, G. W. Trucks, H. B. Schlegel, G. E. Scuseria, 
 M. A. Robb, J. R. Cheeseman, G. Scalmani, V. Barone, B. Mennucci, 
 G. A. Petersson, H. Nakatsuji, M. Caricato, X. Li, H. P. Hratchian, 
 A. F. Izmaylov, J. Bloino, G. Zheng, J. L. Sonnenberg, M. Hada, 
 M. Ehara, K. Toyota, R. Fukuda, J. Hasegawa, M. Ishida, T. Nakajima, 
 Y. Honda, O. Kitao, H. Nakai, T. Vreven, J. A. Montgomery, Jr., 
 J. E. Peralta, F. Ogliaro, M. Bearpark, J. J. Heyd, E. Brothers, 
 K. N. Kudin, V. N. Staroverov, R. Kobayashi, J. Normand, 
 K. Raghavachari, A. Rendell, J. C. Burant, S. S. Iyengar, J. Tomasi, 
 M. Cossi, N. Rega, J. M. Millam, M. Klene, J. E. Knox, J. B. Cross, 
 V. Bakken, C. Adamo, J. Jaramillo, R. Gomperts, R. E. Stratmann, 
 O. Yazyev, A. J. Austin, R. Cammi, C. Pomelli, J. W. Ochterski, 
 R. L. Martin, K. Morokuma, V. G. Zakrzewski, G. A. Voth, 
 P. Salvador, J. J. Dannenberg, S. Dapprich, A. D. Daniels, 
 O. Farkas, J. B. Foresman, J. V. Ortiz, J. Cioslowski, 
 and D. J. Fox, Gaussian, Inc., Wallingford CT, 2009.
 
 ******************************************
 Gaussian 09:  IA32W-G09RevA.02 11-Jun-2009
                27-Nov-2024 
 ******************************************
 %chk=C:\G09W\Midterm1\E3energy.chk
 -----------------------------
 # hf/6-311g geom=connectivity
 -----------------------------
 1/38=1,57=2/1;
 2/12=2,17=6,18=5,40=1/2;
 3/5=4,6=6,11=9,16=1,25=1,30=1/1,2,3;
 4//1;
 5/5=2,38=5/2;
 6/7=2,8=2,9=2,10=2,28=1/1;
 99/5=1,9=1/99;
 -------------------
 Title Card Required
 -------------------
 Symbolic Z-matrix:
 Charge =  0 Multiplicity = 1
 C                     5.83829  -1.88823   0.00168 
 C                     7.23345  -1.88823   0.00168 
 C                     7.93099  -0.68048   0.00168 
 C                     7.23333   0.52803   0.00048 
 C                     5.83851   0.52795   0. 
 C                     5.14091  -0.68026   0.001 
 H                     5.28853  -2.84055   0.00213 
 H                     7.78296  -2.84074   0.00299 
 H                     9.03067  -0.6804    0.00231 
 H                     7.78353   1.48017   0.00042 
 H                     5.28839   1.48023  -0.00095 
 C                     3.60091  -0.68      0.00074 
 O                     2.88816  -1.91971   0.00121 
 H                     3.51295  -2.64857   0.0017 
 C                     2.91886   0.49106   0.00008 
 H                     3.12203   1.02265   0.90619 
 C                     1.40886   0.2056   -0.10005 
 O                     0.99118  -0.97964  -0.16567 
 C                     0.40658   1.37463  -0.11994 
 C                    -0.08796   1.65122   1.31203 
 H                     0.46076   1.04503   2.0022 
 H                     0.06137   2.68422   1.54764 
 H                    -1.12963   1.41659   1.38117 
 C                     1.09719   2.63349  -0.67665 
 H                     0.76405   3.4929   -0.13321 
 H                     2.15745   2.53436  -0.57218 
 H                     0.8499    2.74788  -1.71138 
 C                    -0.79177   1.0082   -1.01508 
 H                    -0.46074   0.89755  -2.02655 
 H                    -1.22088   0.08797  -0.67754 
 H                    -1.52632   1.7845   -0.96311 
 
                          Input orientation:                          
 ---------------------------------------------------------------------
 Center     Atomic      Atomic             Coordinates (Angstroms)
 Number     Number       Type             X           Y           Z
 ---------------------------------------------------------------------
      1          6           0        5.838290   -1.888232    0.001678
      2          6           0        7.233450   -1.888232    0.001678
      3          6           0        7.930988   -0.680481    0.001678
      4          6           0        7.233334    0.528028    0.000479
      5          6           0        5.838509    0.527950    0.000000
      6          6           0        5.140908   -0.680256    0.000996
      7          1           0        5.288531   -2.840549    0.002128
      8          1           0        7.782958   -2.840745    0.002993
      9          1           0        9.030668   -0.680401    0.002312
     10          1           0        7.783534    1.480171    0.000420
     11          1           0        5.288387    1.480231   -0.000953
     12          6           0        3.600909   -0.679999    0.000744
     13          8           0        2.888156   -1.919711    0.001210
     14          1           0        3.512949   -2.648568    0.001703
     15          6           0        2.918860    0.491058    0.000082
     16          1           0        3.122033    1.022653    0.906187
     17          6           0        1.408864    0.205600   -0.100048
     18          8           0        0.991181   -0.979644   -0.165670
     19          6           0        0.406579    1.374629   -0.119940
     20          6           0       -0.087962    1.651223    1.312026
     21          1           0        0.460763    1.045034    2.002196
     22          1           0        0.061370    2.684221    1.547643
     23          1           0       -1.129627    1.416593    1.381174
     24          6           0        1.097186    2.633490   -0.676653
     25          1           0        0.764048    3.492900   -0.133207
     26          1           0        2.157449    2.534356   -0.572177
     27          1           0        0.849900    2.747877   -1.711383
     28          6           0       -0.791774    1.008202   -1.015084
     29          1           0       -0.460742    0.897547   -2.026555
     30          1           0       -1.220878    0.087967   -0.677540
     31          1           0       -1.526323    1.784499   -0.963108
 ---------------------------------------------------------------------
                    Distance matrix (angstroms):
                    1          2          3          4          5
     1  C    0.000000
     2  C    1.395160   0.000000
     3  C    2.416205   1.394712   0.000000
     4  C    2.790065   2.416260   1.395427   0.000000
     5  C    2.416183   2.789946   2.416356   1.394825   0.000000
     6  C    1.394829   2.416183   2.790080   2.416236   1.395138
     7  H    1.099610   2.165553   3.412986   3.889675   3.413102
     8  H    2.165414   1.099655   2.165330   3.413316   3.889601
     9  H    3.413229   2.165375   1.099680   2.165806   3.413209
    10  H    3.889745   3.413024   2.165678   1.099680   2.165606
    11  H    3.413055   3.889707   3.413506   2.165528   1.099761
    12  C    2.542775   3.828209   4.330080   3.828035   2.542833
    13  O    2.950302   4.345408   5.192865   4.987184   3.833488
    14  H    2.446492   3.797399   4.836573   4.892037   3.936814
    15  C    3.766178   4.927141   5.147226   4.314633   2.919882
    16  H    4.082823   5.118119   5.181202   4.238839   2.906054
    17  C    4.900439   6.190338   6.582826   5.834254   4.442485
    18  O    4.934370   6.310266   6.948268   6.423796   5.079063
    19  C    6.337550   7.567511   7.800962   6.880104   5.498829
    20  C    7.026038   8.236979   8.453249   7.522174   6.173023
    21  H    6.443906   7.646922   7.923619   7.081094   5.761625
    22  H    7.527958   8.645003   8.697248   7.647219   6.357676
    23  H    7.834332   9.097579   9.401887   8.522617   7.159068
    24  C    6.586666   7.652440   7.625181   6.522560   5.231759
    25  H    7.397480   8.415934   8.294597   7.117584   5.878676
    26  H    5.782489   6.756803   6.633117   5.487977   4.231224
    27  H    7.022259   8.073277   8.051710   6.971832   5.722162
    28  C    7.306222   8.592285   8.942709   8.103351   6.724708
    29  H    7.179979   8.430592   8.776391   7.965188   6.627525
    30  H    7.361967   8.708752   9.209153   8.492766   7.105462
    31  H    8.285970   9.547428   9.820778   8.901619   7.533077
                    6          7          8          9         10
     6  C    0.000000
     7  H    2.165331   0.000000
     8  H    3.412938   2.494427   0.000000
     9  H    3.889760   4.320860   2.494768   0.000000
    10  H    3.413344   4.989355   4.320917   2.494678   0.000000
    11  H    2.165516   4.320781   4.989362   4.321228   2.495147
    12  C    1.540000   2.741541   4.707267   5.429760   4.707515
    13  O    2.571214   2.570942   4.980702   6.266287   5.960195
    14  H    2.554311   1.785931   4.274332   5.858234   5.940066
    15  C    2.511867   4.088392   5.895793   6.223064   4.964212
    16  H    2.791975   4.520549   6.120933   6.215252   4.770674
    17  C    3.837070   4.933689   7.065403   7.673811   6.501619
    18  O    4.163850   4.685973   7.044174   8.046808   7.225949
    19  C    5.162466   6.451053   8.496792   8.866398   7.378692
    20  C    5.873302   7.127308   9.156567   9.502696   7.981856
    21  H    5.374494   6.511941   8.527053   8.967716   7.603909
    22  H    6.285979   7.761116   9.619466   9.703455   7.967149
    23  H    6.754353   7.824179   9.972888  10.465670   9.019699
    24  C    5.271794   6.927714   8.667682   8.624558   6.818785
    25  H    6.048979   7.784718   9.455089   9.261308   7.303569
    26  H    4.423040   6.246847   7.801851   7.609589   5.752565
    27  H    5.753007   7.339487   9.068577   9.034092   7.253457
    28  C    6.251402   7.267580   9.453936  10.018325   8.648116
    29  H    6.162703   7.151437   9.276448   9.833264   8.509769
    30  H    6.443827   7.170116   9.492605  10.302756   9.136591
    31  H    7.173318   8.292465  10.439777  10.883834   9.364531
                   11         12         13         14         15
    11  H    0.000000
    12  C    2.741201   0.000000
    13  O    4.161817   1.430000   0.000000
    14  H    4.494349   1.970533   0.960000   0.000000
    15  C    2.567708   1.355200   2.410965   3.195340   0.000000
    16  H    2.392775   1.987002   3.087262   3.801154   1.070000
    17  C    4.084753   2.366327   2.591429   3.547366   1.540000
    18  O    4.954200   2.632139   2.123697   3.028636   2.430306
    19  C    4.884400   3.799974   4.126206   5.084334   2.665832
    20  C    5.536992   4.556514   4.829812   5.759489   3.479678
    21  H    5.244803   4.103909   4.322718   5.192351   3.218321
    22  H    5.582961   5.122422   5.619463   6.537734   3.920479
    23  H    6.565458   5.355302   5.401648   6.323131   4.376560
    24  C    4.399175   4.207934   4.939505   5.847753   2.892487
    25  H    4.953582   5.047654   5.816035   6.729955   3.697571
    26  H    3.352648   3.569859   4.549881   5.387896   2.254394
    27  H    4.922669   4.716966   5.373438   6.256846   3.507555
    28  C    6.182203   4.814311   4.811176   5.739030   3.881598
    29  H    6.123322   4.805788   4.823265   5.699033   3.961590
    30  H    6.690792   4.929449   4.623379   5.509910   4.214153
    31  H    6.889020   5.769858   5.842833   6.780649   4.728676
                   16         17         18         19         20
    16  H    0.000000
    17  C    2.148263   0.000000
    18  O    3.114259   1.258400   0.000000
    19  C    2.924127   1.540000   2.426202   0.000000
    20  C    3.296039   2.514809   3.204621   1.540000   0.000000
    21  H    2.878211   2.454176   3.013356   2.148263   1.070000
    22  H    3.541177   3.267137   4.150169   2.148263   1.070000
    23  H    4.296210   3.178752   3.554224   2.148263   1.070000
    24  C    3.033181   2.514809   3.650628   1.540000   2.514810
    25  H    3.569672   3.350108   4.478426   2.148263   2.491263
    26  H    2.324055   2.491262   3.724732   2.148263   3.061375
    27  H    3.871778   3.061374   4.037772   2.148263   3.350109
    28  C    4.359975   2.514810   2.802136   1.540000   2.514809
    29  H    4.631728   2.772299   3.015762   2.148263   3.442835
    30  H    4.716218   2.694972   2.508986   2.148263   2.772299
    31  H    5.067730   3.442835   3.822855   2.148263   2.694973
                   21         22         23         24         25
    21  H    0.000000
    22  H    1.747303   0.000000
    23  H    1.747303   1.747303   0.000000
    24  C    3.178752   2.454177   3.267138   0.000000
    25  H    3.262511   1.993233   3.192242   1.070000   0.000000
    26  H    3.424065   2.984903   3.983698   1.070000   1.747303
    27  H    4.103873   3.353666   3.905734   1.070000   1.747303
    28  C    3.267138   3.178751   2.454176   2.514809   3.061374
    29  H    4.135428   4.029850   3.511329   2.694972   3.438129
    30  H    3.305281   3.651867   2.451913   3.442835   3.978668
    31  H    3.645319   3.103891   2.405906   2.772299   2.975428
                   26         27         28         29         30
    26  H    0.000000
    27  H    1.747303   0.000000
    28  C    3.350109   2.491263   0.000000
    29  H    3.413105   2.289288   1.070000   0.000000
    30  H    4.172411   3.525915   1.070000   1.747303   0.000000
    31  H    3.779589   2.671039   1.070000   1.747303   1.747303
                   31
    31  H    0.000000
 Stoichiometry    C13H16O2
 Framework group  C1[X(C13H16O2)]
 Deg. of freedom    87
 Full point group                 C1      NOp   1
 Largest Abelian subgroup         C1      NOp   1
 Largest concise Abelian subgroup C1      NOp   1
                         Standard orientation:                         
 ---------------------------------------------------------------------
 Center     Atomic      Atomic             Coordinates (Angstroms)
 Number     Number       Type             X           Y           Z
 ---------------------------------------------------------------------
      1          6           0        3.031799   -1.061764   -0.001759
      2          6           0        4.361962   -0.641744   -0.028601
      3          6           0        4.663341    0.719953   -0.041768
      4          6           0        3.634276    1.662337   -0.029292
      5          6           0        2.304447    1.242340   -0.002936
      6          6           0        2.003164   -0.119804    0.011228
      7          1           0        2.794410   -2.135390    0.009068
      8          1           0        5.172703   -1.384611   -0.038057
      9          1           0        5.711778    1.051098   -0.062291
     10          1           0        3.872146    2.735931   -0.039737
     11          1           0        1.493198    1.984804    0.006894
     12          6           0        0.534826   -0.583186    0.040605
     13          8           0        0.228574   -1.979938    0.054524
     14          1           0        1.043733   -2.486870    0.042844
     15          6           0       -0.468073    0.328185    0.053309
     16          1           0       -0.417752    0.901343    0.955450
     17          6           0       -1.823612   -0.399177   -0.017811
     18          8           0       -1.866159   -1.655528   -0.075633
     19          6           0       -3.131573    0.413742   -0.018171
     20          6           0       -3.659997    0.536625    1.423101
     21          1           0       -2.941603    0.127627    2.102461
     22          1           0       -3.824328    1.567957    1.656018
     23          1           0       -4.581212   -0.000328    1.512229
     24          6           0       -2.862439    1.818977   -0.587805
     25          1           0       -3.428828    2.541249   -0.037871
     26          1           0       -1.819798    2.044226   -0.503767
     27          1           0       -3.151697    1.847821   -1.617561
     28          6           0       -4.180242   -0.301456   -0.890171
     29          1           0       -3.849933   -0.312975   -1.907847
     30          1           0       -4.306052   -1.306280   -0.544627
     31          1           0       -5.113362    0.217963   -0.823910
 ---------------------------------------------------------------------
 Rotational constants (GHZ):      1.4988810      0.2760814      0.2458878
 Standard basis: 6-311G (5D, 7F)
 There are   243 symmetry adapted basis functions of A   symmetry.
 Integral buffers will be    262144 words long.
 Raffenetti 1 integral format.
 Two-electron integral symmetry is turned on.
   243 basis functions,   470 primitive gaussians,   243 cartesian basis functions
    55 alpha electrons       55 beta electrons
       nuclear repulsion energy       949.1490877252 Hartrees.
 NAtoms=   31 NActive=   31 NUniq=   31 SFac= 7.50D-01 NAtFMM=   80 NAOKFM=F Big=F
 One-electron integrals computed using PRISM.
 NBasis=   243 RedAO= T  NBF=   243
 NBsUse=   243 1.00D-06 NBFU=   243
 Harris functional with IExCor=  205 diagonalized for initial guess.
 ExpMin= 1.03D-01 ExpMax= 8.59D+03 ExpMxC= 1.30D+03 IAcc=1 IRadAn=         1 AccDes= 0.00D+00
 HarFok:  IExCor=  205 AccDes= 0.00D+00 IRadAn=         1 IDoV= 1
 ScaDFX=  1.000000  1.000000  1.000000  1.000000
 FoFCou: FMM=F IPFlag=           0 FMFlag=      100000 FMFlg1=           0
         NFxFlg=           0 DoJE=T BraDBF=F KetDBF=T FulRan=T
         Omega=  0.000000  0.000000  1.000000  0.000000  0.000000 ICntrl=     500 IOpCl=  0
         NMat0=    1 NMatS0=    1 NMatT0=    0 NMatD0=    1 NMtDS0=    0 NMtDT0=    0
         I1Cent=           4 NGrid=           0.
 Petite list used in FoFCou.
 Initial guess orbital symmetries:
       Occupied  (A) (A) (A) (A) (A) (A) (A) (A) (A) (A) (A) (A)
                 (A) (A) (A) (A) (A) (A) (A) (A) (A) (A) (A) (A)
                 (A) (A) (A) (A) (A) (A) (A) (A) (A) (A) (A) (A)
                 (A) (A) (A) (A) (A) (A) (A) (A) (A) (A) (A) (A)
                 (A) (A) (A) (A) (A) (A) (A)
       Virtual   (A) (A) (A) (A) (A) (A) (A) (A) (A) (A) (A) (A)
                 (A) (A) (A) (A) (A) (A) (A) (A) (A) (A) (A) (A)
                 (A) (A) (A) (A) (A) (A) (A) (A) (A) (A) (A) (A)
                 (A) (A) (A) (A) (A) (A) (A) (A) (A) (A) (A) (A)
                 (A) (A) (A) (A) (A) (A) (A) (A) (A) (A) (A) (A)
                 (A) (A) (A) (A) (A) (A) (A) (A) (A) (A) (A) (A)
                 (A) (A) (A) (A) (A) (A) (A) (A) (A) (A) (A) (A)
                 (A) (A) (A) (A) (A) (A) (A) (A) (A) (A) (A) (A)
                 (A) (A) (A) (A) (A) (A) (A) (A) (A) (A) (A) (A)
                 (A) (A) (A) (A) (A) (A) (A) (A) (A) (A) (A) (A)
                 (A) (A) (A) (A) (A) (A) (A) (A) (A) (A) (A) (A)
                 (A) (A) (A) (A) (A) (A) (A) (A) (A) (A) (A) (A)
                 (A) (A) (A) (A) (A) (A) (A) (A) (A) (A) (A) (A)
                 (A) (A) (A) (A) (A) (A) (A) (A) (A) (A) (A) (A)
                 (A) (A) (A) (A) (A) (A) (A) (A) (A) (A) (A) (A)
                 (A) (A) (A) (A) (A) (A) (A) (A)
 The electronic state of the initial guess is 1-A.
 Requested convergence on RMS density matrix=1.00D-08 within 128 cycles.
 Requested convergence on MAX density matrix=1.00D-06.
 Requested convergence on             energy=1.00D-06.
 No special actions if energy rises.
 Integral accuracy reduced to 1.0D-05 until final iterations.
 Initial convergence to 1.0D-05 achieved.  Increase integral accuracy.
 SCF Done:  E(RHF) =  -651.064143193     A.U. after   18 cycles
             Convg  =    0.5975D-08             -V/T =  1.9998

 **********************************************************************

            Population analysis using the SCF density.

 **********************************************************************

 Orbital symmetries:
       Occupied  (A) (A) (A) (A) (A) (A) (A) (A) (A) (A) (A) (A)
                 (A) (A) (A) (A) (A) (A) (A) (A) (A) (A) (A) (A)
                 (A) (A) (A) (A) (A) (A) (A) (A) (A) (A) (A) (A)
                 (A) (A) (A) (A) (A) (A) (A) (A) (A) (A) (A) (A)
                 (A) (A) (A) (A) (A) (A) (A)
       Virtual   (A) (A) (A) (A) (A) (A) (A) (A) (A) (A) (A) (A)
                 (A) (A) (A) (A) (A) (A) (A) (A) (A) (A) (A) (A)
                 (A) (A) (A) (A) (A) (A) (A) (A) (A) (A) (A) (A)
                 (A) (A) (A) (A) (A) (A) (A) (A) (A) (A) (A) (A)
                 (A) (A) (A) (A) (A) (A) (A) (A) (A) (A) (A) (A)
                 (A) (A) (A) (A) (A) (A) (A) (A) (A) (A) (A) (A)
                 (A) (A) (A) (A) (A) (A) (A) (A) (A) (A) (A) (A)
                 (A) (A) (A) (A) (A) (A) (A) (A) (A) (A) (A) (A)
                 (A) (A) (A) (A) (A) (A) (A) (A) (A) (A) (A) (A)
                 (A) (A) (A) (A) (A) (A) (A) (A) (A) (A) (A) (A)
                 (A) (A) (A) (A) (A) (A) (A) (A) (A) (A) (A) (A)
                 (A) (A) (A) (A) (A) (A) (A) (A) (A) (A) (A) (A)
                 (A) (A) (A) (A) (A) (A) (A) (A) (A) (A) (A) (A)
                 (A) (A) (A) (A) (A) (A) (A) (A) (A) (A) (A) (A)
                 (A) (A) (A) (A) (A) (A) (A) (A) (A) (A) (A) (A)
                 (A) (A) (A) (A) (A) (A) (A) (A)
 The electronic state is 1-A.
 Alpha  occ. eigenvalues --  -20.59908 -20.51047 -11.36705 -11.32125 -11.29048
 Alpha  occ. eigenvalues --  -11.28105 -11.27384 -11.27362 -11.27223 -11.27017
 Alpha  occ. eigenvalues --  -11.23883 -11.22686 -11.20678 -11.19748 -11.19414
 Alpha  occ. eigenvalues --   -1.41143  -1.34371  -1.19216  -1.10408  -1.08989
 Alpha  occ. eigenvalues --   -1.04936  -1.03243  -0.93954  -0.93346  -0.88449
 Alpha  occ. eigenvalues --   -0.85933  -0.83870  -0.77918  -0.76183  -0.70257
 Alpha  occ. eigenvalues --   -0.68403  -0.65715  -0.64879  -0.63989  -0.61677
 Alpha  occ. eigenvalues --   -0.61171  -0.60582  -0.59397  -0.58781  -0.57015
 Alpha  occ. eigenvalues --   -0.55523  -0.54847  -0.53018  -0.52860  -0.51929
 Alpha  occ. eigenvalues --   -0.51368  -0.50535  -0.49685  -0.47495  -0.44724
 Alpha  occ. eigenvalues --   -0.43576  -0.39630  -0.36606  -0.36124  -0.32113
 Alpha virt. eigenvalues --    0.05188   0.10676   0.13094   0.15454   0.15674
 Alpha virt. eigenvalues --    0.15909   0.17522   0.18425   0.19342   0.20676
 Alpha virt. eigenvalues --    0.21395   0.21823   0.22885   0.24520   0.25164
 Alpha virt. eigenvalues --    0.26336   0.26958   0.27604   0.29785   0.31038
 Alpha virt. eigenvalues --    0.33102   0.33917   0.34639   0.37070   0.38695
 Alpha virt. eigenvalues --    0.39411   0.40209   0.41240   0.41812   0.42943
 Alpha virt. eigenvalues --    0.44397   0.45491   0.48844   0.49996   0.51108
 Alpha virt. eigenvalues --    0.52240   0.52992   0.54052   0.54597   0.54825
 Alpha virt. eigenvalues --    0.55530   0.55912   0.58402   0.59358   0.60186
 Alpha virt. eigenvalues --    0.60297   0.61094   0.61700   0.62573   0.63258
 Alpha virt. eigenvalues --    0.64321   0.64383   0.67518   0.67710   0.69995
 Alpha virt. eigenvalues --    0.71831   0.72036   0.74076   0.74770   0.76898
 Alpha virt. eigenvalues --    0.78005   0.79277   0.80119   0.80474   0.80713
 Alpha virt. eigenvalues --    0.81086   0.81648   0.82117   0.82549   0.82952
 Alpha virt. eigenvalues --    0.83611   0.84266   0.84671   0.84916   0.85701
 Alpha virt. eigenvalues --    0.86751   0.87799   0.88228   0.89178   0.90896
 Alpha virt. eigenvalues --    0.92081   0.94030   0.94427   0.95039   0.95431
 Alpha virt. eigenvalues --    0.96702   0.99674   1.02723   1.04313   1.07349
 Alpha virt. eigenvalues --    1.09306   1.10214   1.10918   1.11296   1.13020
 Alpha virt. eigenvalues --    1.14854   1.16325   1.17883   1.20714   1.24570
 Alpha virt. eigenvalues --    1.25119   1.26864   1.30312   1.31200   1.32234
 Alpha virt. eigenvalues --    1.35921   1.40797   1.48574   1.53652   1.69020
 Alpha virt. eigenvalues --    1.88073   2.18581   2.44629   2.53986   2.55166
 Alpha virt. eigenvalues --    2.59677   2.60280   2.61381   2.63612   2.64855
 Alpha virt. eigenvalues --    2.66608   2.66836   2.68205   2.69423   2.70834
 Alpha virt. eigenvalues --    2.72193   2.74547   2.84761   2.88651   2.91438
 Alpha virt. eigenvalues --    2.93491   2.97459   3.03047   3.03846   3.06895
 Alpha virt. eigenvalues --    3.09664   3.12942   3.14397   3.18243   3.21433
 Alpha virt. eigenvalues --    3.23136   3.23528   3.25268   3.26415   3.28544
 Alpha virt. eigenvalues --    3.31346   3.31726   3.33313   3.34337   3.35149
 Alpha virt. eigenvalues --    3.39675   3.42422   3.44490   3.46865   3.49362
 Alpha virt. eigenvalues --    3.50848   3.52818   3.55829   3.57658   3.59550
 Alpha virt. eigenvalues --    3.61484   3.63265   3.65118   3.67939   3.68851
 Alpha virt. eigenvalues --    3.72556   3.84991   5.35406   5.47959   5.50958
 Alpha virt. eigenvalues --    5.56343   5.69037   5.80937  24.23407  24.40225
 Alpha virt. eigenvalues --   24.47499  24.49627  24.55394  24.62824  24.67556
 Alpha virt. eigenvalues --   24.68859  24.74488  24.77164  24.83056  24.86021
 Alpha virt. eigenvalues --   25.01500  51.54666  51.68167
          Condensed to atoms (all electrons):
              1          2          3          4          5          6
     1  C    5.210945   0.428678  -0.092042  -0.037306  -0.071635   0.357883
     2  C    0.428678   5.066207   0.493613  -0.068558  -0.030065  -0.055212
     3  C   -0.092042   0.493613   5.013592   0.478278  -0.089844  -0.008688
     4  C   -0.037306  -0.068558   0.478278   5.116895   0.428503  -0.067847
     5  C   -0.071635  -0.030065  -0.089844   0.428503   5.044268   0.475341
     6  C    0.357883  -0.055212  -0.008688  -0.067847   0.475341   5.762042
     7  H    0.391984  -0.015506   0.004575  -0.000260   0.002592  -0.076690
     8  H   -0.036845   0.396159  -0.036737   0.005508  -0.000317   0.005140
     9  H    0.008168  -0.041048   0.397213  -0.041636   0.007600  -0.001788
    10  H   -0.000279   0.005458  -0.038810   0.396178  -0.035664   0.005732
    11  H    0.004143  -0.000188   0.004038  -0.033773   0.387850  -0.037477
    12  C   -0.042834   0.015585   0.000054   0.012772  -0.002585  -0.079545
    13  O    0.002638   0.001268  -0.000034  -0.000041   0.003308  -0.116829
    14  H    0.000741  -0.000059   0.000017  -0.000025   0.000395  -0.002802
    15  C    0.010063  -0.000562   0.000062   0.000402   0.001448  -0.112164
    16  H    0.000205   0.000087  -0.000061   0.000543   0.000837  -0.019215
    17  C   -0.000328   0.000022   0.000001  -0.000026   0.000148   0.012921
    18  O    0.000187   0.000002   0.000000   0.000000   0.000021  -0.001477
    19  C    0.000026   0.000000   0.000000   0.000001   0.000102  -0.001575
    20  C    0.000000   0.000000   0.000000   0.000000  -0.000003   0.000023
    21  H   -0.000002   0.000000   0.000000   0.000000   0.000000   0.000043
    22  H    0.000000   0.000000   0.000000   0.000000   0.000000  -0.000002
    23  H    0.000000   0.000000   0.000000   0.000000   0.000000  -0.000001
    24  C   -0.000002   0.000000   0.000000  -0.000002  -0.000074   0.000248
    25  H    0.000000   0.000000   0.000000   0.000000  -0.000002   0.000001
    26  H    0.000008   0.000000   0.000000  -0.000004   0.000173  -0.000248
    27  H    0.000000   0.000000   0.000000   0.000000  -0.000004  -0.000009
    28  C    0.000000   0.000000   0.000000   0.000000  -0.000001   0.000011
    29  H    0.000000   0.000000   0.000000   0.000000   0.000000  -0.000002
    30  H    0.000000   0.000000   0.000000   0.000000   0.000000   0.000000
    31  H    0.000000   0.000000   0.000000   0.000000   0.000000   0.000000
              7          8          9         10         11         12
     1  C    0.391984  -0.036845   0.008168  -0.000279   0.004143  -0.042834
     2  C   -0.015506   0.396159  -0.041048   0.005458  -0.000188   0.015585
     3  C    0.004575  -0.036737   0.397213  -0.038810   0.004038   0.000054
     4  C   -0.000260   0.005508  -0.041636   0.396178  -0.033773   0.012772
     5  C    0.002592  -0.000317   0.007600  -0.035664   0.387850  -0.002585
     6  C   -0.076690   0.005140  -0.001788   0.005732  -0.037477  -0.079545
     7  H    0.513326  -0.003403  -0.000166   0.000022  -0.000215   0.006156
     8  H   -0.003403   0.498201  -0.003895  -0.000185   0.000017  -0.000315
     9  H   -0.000166  -0.003895   0.501327  -0.003936  -0.000128  -0.000054
    10  H    0.000022  -0.000185  -0.003936   0.496905  -0.003100  -0.000296
    11  H   -0.000215   0.000017  -0.000128  -0.003100   0.454768  -0.001243
    12  C    0.006156  -0.000315  -0.000054  -0.000296  -0.001243   5.342093
    13  O   -0.001554  -0.000001   0.000000   0.000001   0.000193   0.329351
    14  H    0.009380  -0.000027   0.000001   0.000000  -0.000014  -0.027709
    15  C    0.001862   0.000003   0.000000   0.000040   0.006103   0.092666
    16  H   -0.000013   0.000001   0.000000   0.000010  -0.000320  -0.029209
    17  C   -0.000022   0.000000   0.000000   0.000000   0.000403  -0.016142
    18  O    0.000063   0.000000   0.000000   0.000000   0.000003   0.023414
    19  C    0.000003   0.000000   0.000000   0.000000  -0.000104   0.012134
    20  C    0.000000   0.000000   0.000000   0.000000  -0.000001  -0.000546
    21  H    0.000000   0.000000   0.000000   0.000000  -0.000002  -0.000017
    22  H    0.000000   0.000000   0.000000   0.000000   0.000001   0.000035
    23  H    0.000000   0.000000   0.000000   0.000000   0.000000   0.000048
    24  C    0.000000   0.000000   0.000000   0.000000   0.000177   0.000433
    25  H    0.000000   0.000000   0.000000   0.000000   0.000001  -0.000047
    26  H    0.000001   0.000000   0.000000  -0.000002   0.000607   0.000626
    27  H    0.000000   0.000000   0.000000   0.000000   0.000000   0.000014
    28  C    0.000000   0.000000   0.000000   0.000000  -0.000001  -0.001190
    29  H    0.000000   0.000000   0.000000   0.000000   0.000000  -0.000113
    30  H    0.000000   0.000000   0.000000   0.000000   0.000000  -0.000212
    31  H    0.000000   0.000000   0.000000   0.000000   0.000000   0.000050
             13         14         15         16         17         18
     1  C    0.002638   0.000741   0.010063   0.000205  -0.000328   0.000187
     2  C    0.001268  -0.000059  -0.000562   0.000087   0.000022   0.000002
     3  C   -0.000034   0.000017   0.000062  -0.000061   0.000001   0.000000
     4  C   -0.000041  -0.000025   0.000402   0.000543  -0.000026   0.000000
     5  C    0.003308   0.000395   0.001448   0.000837   0.000148   0.000021
     6  C   -0.116829  -0.002802  -0.112164  -0.019215   0.012921  -0.001477
     7  H   -0.001554   0.009380   0.001862  -0.000013  -0.000022   0.000063
     8  H   -0.000001  -0.000027   0.000003   0.000001   0.000000   0.000000
     9  H    0.000000   0.000001   0.000000   0.000000   0.000000   0.000000
    10  H    0.000001   0.000000   0.000040   0.000010   0.000000   0.000000
    11  H    0.000193  -0.000014   0.006103  -0.000320   0.000403   0.000003
    12  C    0.329351  -0.027709   0.092666  -0.029209  -0.016142   0.023414
    13  O    8.443163   0.254168  -0.158608   0.004457   0.006984  -0.110150
    14  H    0.254168   0.364507   0.007320  -0.000379  -0.000176   0.004460
    15  C   -0.158608   0.007320   6.439296   0.339898   0.047646  -0.161076
    16  H    0.004457  -0.000379   0.339898   0.512718  -0.040796   0.004217
    17  C    0.006984  -0.000176   0.047646  -0.040796   5.207337   0.575667
    18  O   -0.110150   0.004460  -0.161076   0.004217   0.575667   8.274594
    19  C   -0.001798   0.000132  -0.156750   0.008885  -0.070680  -0.140349
    20  C    0.000047  -0.000007   0.000736   0.000797  -0.069876   0.004973
    21  H    0.000065  -0.000001   0.002394   0.000637   0.000926   0.001988
    22  H   -0.000003   0.000000  -0.000169  -0.000100   0.003953  -0.000103
    23  H    0.000000   0.000000  -0.000367   0.000002   0.001764  -0.000126
    24  C    0.000034  -0.000004   0.004012  -0.006799  -0.063735   0.005696
    25  H   -0.000001   0.000000  -0.000488   0.000107   0.007861  -0.000228
    26  H    0.000001  -0.000005  -0.008405   0.000126   0.002644   0.000412
    27  H    0.000001   0.000000   0.000398   0.000126   0.001343  -0.000200
    28  C    0.000036  -0.000002   0.008384  -0.000052  -0.074447   0.006314
    29  H   -0.000008   0.000000  -0.000216  -0.000002  -0.005649   0.001166
    30  H    0.000061  -0.000001   0.002009  -0.000087  -0.006734   0.011956
    31  H   -0.000001   0.000000  -0.000491   0.000017   0.012027  -0.000089
             19         20         21         22         23         24
     1  C    0.000026   0.000000  -0.000002   0.000000   0.000000  -0.000002
     2  C    0.000000   0.000000   0.000000   0.000000   0.000000   0.000000
     3  C    0.000000   0.000000   0.000000   0.000000   0.000000   0.000000
     4  C    0.000001   0.000000   0.000000   0.000000   0.000000  -0.000002
     5  C    0.000102  -0.000003   0.000000   0.000000   0.000000  -0.000074
     6  C   -0.001575   0.000023   0.000043  -0.000002  -0.000001   0.000248
     7  H    0.000003   0.000000   0.000000   0.000000   0.000000   0.000000
     8  H    0.000000   0.000000   0.000000   0.000000   0.000000   0.000000
     9  H    0.000000   0.000000   0.000000   0.000000   0.000000   0.000000
    10  H    0.000000   0.000000   0.000000   0.000000   0.000000   0.000000
    11  H   -0.000104  -0.000001  -0.000002   0.000001   0.000000   0.000177
    12  C    0.012134  -0.000546  -0.000017   0.000035   0.000048   0.000433
    13  O   -0.001798   0.000047   0.000065  -0.000003   0.000000   0.000034
    14  H    0.000132  -0.000007  -0.000001   0.000000   0.000000  -0.000004
    15  C   -0.156750   0.000736   0.002394  -0.000169  -0.000367   0.004012
    16  H    0.008885   0.000797   0.000637  -0.000100   0.000002  -0.006799
    17  C   -0.070680  -0.069876   0.000926   0.003953   0.001764  -0.063735
    18  O   -0.140349   0.004973   0.001988  -0.000103  -0.000126   0.005696
    19  C    6.655494   0.112783  -0.063151  -0.053515  -0.052948   0.070439
    20  C    0.112783   5.388817   0.389995   0.394418   0.399795  -0.074176
    21  H   -0.063151   0.389995   0.526056  -0.026900  -0.021993   0.006315
    22  H   -0.053515   0.394418  -0.026900   0.545058  -0.026598  -0.010251
    23  H   -0.052948   0.399795  -0.021993  -0.026598   0.507316   0.006503
    24  C    0.070439  -0.074176   0.006315  -0.010251   0.006503   5.463764
    25  H   -0.046969  -0.012302   0.000500  -0.000500   0.000889   0.380294
    26  H   -0.061804   0.004840  -0.000467   0.000922  -0.000478   0.394818
    27  H   -0.055916   0.007940  -0.000525   0.000975  -0.000425   0.392660
    28  C    0.204319  -0.064803   0.005642   0.002298  -0.005845  -0.085971
    29  H   -0.050866   0.009417  -0.000434  -0.000585   0.000537  -0.004924
    30  H   -0.049174  -0.001575   0.000348  -0.000190   0.001125   0.008814
    31  H   -0.054787  -0.007861  -0.000104   0.000354   0.000080  -0.003987
             25         26         27         28         29         30
     1  C    0.000000   0.000008   0.000000   0.000000   0.000000   0.000000
     2  C    0.000000   0.000000   0.000000   0.000000   0.000000   0.000000
     3  C    0.000000   0.000000   0.000000   0.000000   0.000000   0.000000
     4  C    0.000000  -0.000004   0.000000   0.000000   0.000000   0.000000
     5  C   -0.000002   0.000173  -0.000004  -0.000001   0.000000   0.000000
     6  C    0.000001  -0.000248  -0.000009   0.000011  -0.000002   0.000000
     7  H    0.000000   0.000001   0.000000   0.000000   0.000000   0.000000
     8  H    0.000000   0.000000   0.000000   0.000000   0.000000   0.000000
     9  H    0.000000   0.000000   0.000000   0.000000   0.000000   0.000000
    10  H    0.000000  -0.000002   0.000000   0.000000   0.000000   0.000000
    11  H    0.000001   0.000607   0.000000  -0.000001   0.000000   0.000000
    12  C   -0.000047   0.000626   0.000014  -0.001190  -0.000113  -0.000212
    13  O   -0.000001   0.000001   0.000001   0.000036  -0.000008   0.000061
    14  H    0.000000  -0.000005   0.000000  -0.000002   0.000000  -0.000001
    15  C   -0.000488  -0.008405   0.000398   0.008384  -0.000216   0.002009
    16  H    0.000107   0.000126   0.000126  -0.000052  -0.000002  -0.000087
    17  C    0.007861   0.002644   0.001343  -0.074447  -0.005649  -0.006734
    18  O   -0.000228   0.000412  -0.000200   0.006314   0.001166   0.011956
    19  C   -0.046969  -0.061804  -0.055916   0.204319  -0.050866  -0.049174
    20  C   -0.012302   0.004840   0.007940  -0.064803   0.009417  -0.001575
    21  H    0.000500  -0.000467  -0.000525   0.005642  -0.000434   0.000348
    22  H   -0.000500   0.000922   0.000975   0.002298  -0.000585  -0.000190
    23  H    0.000889  -0.000478  -0.000425  -0.005845   0.000537   0.001125
    24  C    0.380294   0.394818   0.392660  -0.085971  -0.004924   0.008814
    25  H    0.558745  -0.024465  -0.026442   0.002141  -0.000086  -0.000527
    26  H   -0.024465   0.504399  -0.020551   0.006265   0.000236  -0.000399
    27  H   -0.026442  -0.020551   0.526133  -0.003513   0.002583   0.000328
    28  C    0.002141   0.006265  -0.003513   5.285920   0.394968   0.392009
    29  H   -0.000086   0.000236   0.002583   0.394968   0.543312  -0.022286
    30  H   -0.000527  -0.000399   0.000328   0.392009  -0.022286   0.492154
    31  H    0.000955  -0.000060  -0.000532   0.396060  -0.031825  -0.030257
             31
     1  C    0.000000
     2  C    0.000000
     3  C    0.000000
     4  C    0.000000
     5  C    0.000000
     6  C    0.000000
     7  H    0.000000
     8  H    0.000000
     9  H    0.000000
    10  H    0.000000
    11  H    0.000000
    12  C    0.000050
    13  O   -0.000001
    14  H    0.000000
    15  C   -0.000491
    16  H    0.000017
    17  C    0.012027
    18  O   -0.000089
    19  C   -0.054787
    20  C   -0.007861
    21  H   -0.000104
    22  H    0.000354
    23  H    0.000080
    24  C   -0.003987
    25  H    0.000955
    26  H   -0.000060
    27  H   -0.000532
    28  C    0.396060
    29  H   -0.031825
    30  H   -0.030257
    31  H    0.562270
 Mulliken atomic charges:
              1
     1  C   -0.134396
     2  C   -0.195881
     3  C   -0.125226
     4  C   -0.189601
     5  C   -0.122392
     6  C   -0.037816
     7  H    0.167866
     8  H    0.176695
     9  H    0.178342
    10  H    0.177925
    11  H    0.218263
    12  C    0.366625
    13  O   -0.656748
    14  H    0.390092
    15  C   -0.365446
    16  H    0.223364
    17  C    0.466963
    18  O   -0.501335
    19  C   -0.203930
    20  C   -0.483431
    21  H    0.178688
    22  H    0.170902
    23  H    0.190720
    24  C   -0.484281
    25  H    0.160562
    26  H    0.200808
    27  H    0.175615
    28  C   -0.468543
    29  H    0.164779
    30  H    0.202637
    31  H    0.158179
 Sum of Mulliken atomic charges =   0.00000
 Mulliken charges with hydrogens summed into heavy atoms:
              1
     1  C    0.033470
     2  C   -0.019186
     3  C    0.053116
     4  C   -0.011675
     5  C    0.095870
     6  C   -0.037816
    12  C    0.366625
    13  O   -0.266656
    15  C   -0.142082
    17  C    0.466963
    18  O   -0.501335
    19  C   -0.203930
    20  C    0.056880
    24  C    0.052704
    28  C    0.057053
 Sum of Mulliken charges with hydrogens summed into heavy atoms =   0.00000
 Electronic spatial extent (au):  <R**2>=           4459.1363
 Charge=              0.0000 electrons
 Dipole moment (field-independent basis, Debye):
    X=              4.7379    Y=              2.4333    Z=              0.9656  Tot=              5.4130
 Quadrupole moment (field-independent basis, Debye-Ang):
   XX=            -77.5534   YY=            -91.2436   ZZ=            -95.7279
   XY=             -8.9425   XZ=             -1.1680   YZ=              0.9076
 Traceless Quadrupole moment (field-independent basis, Debye-Ang):
   XX=             10.6216   YY=             -3.0687   ZZ=             -7.5530
   XY=             -8.9425   XZ=             -1.1680   YZ=              0.9076
 Octapole moment (field-independent basis, Debye-Ang**2):
  XXX=             57.3258  YYY=             -9.5627  ZZZ=             -0.0224  XYY=             38.7681
  XXY=              5.3598  XXZ=              1.3128  XZZ=            -18.8130  YZZ=             -6.4757
  YYZ=              2.6577  XYZ=             -0.4851
 Hexadecapole moment (field-independent basis, Debye-Ang**3):
 XXXX=          -4618.0037 YYYY=           -797.4286 ZZZZ=           -285.3662 XXXY=             11.1364
 XXXZ=            -24.1485 YYYX=            -25.9180 YYYZ=              3.4707 ZZZX=              7.3997
 ZZZY=             -0.0002 XXYY=           -933.0182 XXZZ=           -963.3079 YYZZ=           -196.4074
 XXYZ=             -2.3870 YYXZ=             -6.3957 ZZXY=             -2.2261
 N-N= 9.491490877252D+02 E-N=-3.420304094549D+03  KE= 6.512014665860D+02
 1|1|UNPC-DESKTOP-K2VF0AK|SP|RHF|6-311G|C13H16O2|MELIH|27-Nov-2024|0||#
  hf/6-311g geom=connectivity||Title Card Required||0,1|C,0,5.83829048,
 -1.8882317,0.001678|C,0,7.23345048,-1.8882317,0.001678|C,0,7.93098848,
 -0.6804807,0.001678|C,0,7.23333448,0.5280283,0.000479|C,0,5.83850948,0
 .5279503,0.|C,0,5.14090848,-0.6802557,0.000996|H,0,5.28853148,-2.84054
 87,0.002128|H,0,7.78295848,-2.8407447,0.002993|H,0,9.03066848,-0.68040
 07,0.002312|H,0,7.78353448,1.4801713,0.00042|H,0,5.28838748,1.4802313,
 -0.000953|C,0,3.60090852,-0.67999941,0.00074391|O,0,2.88815616,-1.9197
 1061,0.00121011|H,0,3.51294943,-2.64856802,0.001703|C,0,2.9188601,0.49
 105847,0.00008177|H,0,3.12203348,1.02265329,0.90618747|C,0,1.40886419,
 0.20560041,-0.10004835|O,0,0.99118117,-0.97964439,-0.16567036|C,0,0.40
 657872,1.37462914,-0.11994009|C,0,-0.08796173,1.65122302,1.31202554|H,
 0,0.46076326,1.04503412,2.00219646|H,0,0.06136964,2.68422094,1.5476427
 1|H,0,-1.12962729,1.41659278,1.3811742|C,0,1.09718649,2.63349022,-0.67
 665337|H,0,0.76404813,3.49290012,-0.13320747|H,0,2.15744925,2.53435601
 ,-0.5721771|H,0,0.84989974,2.74787736,-1.71138273|C,0,-0.79177368,1.00
 820238,-1.01508418|H,0,-0.46074159,0.8975467,-2.02655493|H,0,-1.220877
 7,0.0879667,-0.67754006|H,0,-1.5263229,1.78449867,-0.96310805||Version
 =IA32W-G09RevA.02|State=1-A|HF=-651.0641432|RMSD=5.975e-009|Dipole=2.0
 58087,0.3517218,0.419495|Quadrupole=3.1767802,2.4597584,-5.6365386,-8.
 3814639,-0.4539221,0.7421281|PG=C01 [X(C13H16O2)]||@


 A ROPE OVER THE TOP OF A FENCE HAS THE SAME LENGTH ON EACH SIDE.
 WEIGHS 1/3 POUND PER FOOT.  ON ONE END HANGS A MONKEY HOLDING A
 BANANA, AND ON THE OTHER END A WEIGHT EQUAL TO THE WEIGHT
 OF THE MONKEY.  THE BANANA WEIGHS TWO OUNCES PER INCH.
 THE ROPE IS AS LONG AS THE AGE OF THE MONKEY, 
 AND THE WEIGHT OF THE MONKEY (IN OUNCES) IS AS MUCH
 AS THE AGE OF THE MONKEY'S MOTHER.  THE COMBINED AGES OF MONKEY
 AND MOTHER ARE THIRTY YEARS.  HALF THE WEIGHT OF THE MONKEY,
  PLUS THE WEIGHT OF THE BANANA, IS ONE FOURTH AS MUCH AS THE WEIGHT
 OF THE WEIGHT AND THE ROPE.
 THE MONKEY'S MOTHER IS HALF AS OLD AS THE MONKEY WILL BE
 WHEN IT IS 3 TIMES AS OLD AS ITS MOTHER WAS WHEN
 SHE WAS HALF AS OLD AS THE MONKEY WILL BE WHEN IT IS
 AS OLD AS ITS MOTHER WILL BE WHEN SHE IS 4 TIMES AS
 OLD AS THE MONKEY WAS WHEN IT WAS TWICE AS OLD AS 
 ITS MOTHER WAS WHEN SHE WAS ONE THIRD AS OLD AS THE
 MONKEY WAS WHEN IT WAS AS OLD AS ITS MOTHER WAS WHEN 
 SHE WAS 3 TIMES AS OLD AS THE MONKEY WAS WHEN IT WAS AS OLD AS ITS
 MOTHER WAS WHEN SHE WAS 3 TIMES AS OLD AS THE MONKEY 
 WAS WHEN IT WAS ONE FOURTH WAS OLD AS IT IS NOW.

 HOW LONG IS THE BANANA?
 Job cpu time:  0 days  0 hours  1 minutes 15.0 seconds.
 File lengths (MBytes):  RWF=     36 Int=      0 D2E=      0 Chk=      3 Scr=      1
 Normal termination of Gaussian 09 at Wed Nov 27 21:17:40 2024.
