 Entering Link 1 = C:\G09W\l1.exe PID=     20256.
  
 Copyright (c) 1988,1990,1992,1993,1995,1998,2003,2009, Gaussian, Inc.
                  All Rights Reserved.
  
 This is part of the Gaussian(R) 09 program.  It is based on
 the Gaussian(R) 03 system (copyright 2003, Gaussian, Inc.),
 the Gaussian(R) 98 system (copyright 1998, Gaussian, Inc.),
 the Gaussian(R) 94 system (copyright 1995, Gaussian, Inc.),
 the Gaussian 92(TM) system (copyright 1992, Gaussian, Inc.),
 the Gaussian 90(TM) system (copyright 1990, Gaussian, Inc.),
 the Gaussian 88(TM) system (copyright 1988, Gaussian, Inc.),
 the Gaussian 86(TM) system (copyright 1986, Carnegie Mellon
 University), and the Gaussian 82(TM) system (copyright 1983,
 Carnegie Mellon University). Gaussian is a federally registered
 trademark of Gaussian, Inc.
  
 This software contains proprietary and confidential information,
 including trade secrets, belonging to Gaussian, Inc.
  
 This software is provided under written license and may be
 used, copied, transmitted, or stored only in accord with that
 written license.
  
 The following legend is applicable only to US Government
 contracts under FAR:
  
                    RESTRICTED RIGHTS LEGEND
  
 Use, reproduction and disclosure by the US Government is
 subject to restrictions as set forth in subparagraphs (a)
 and (c) of the Commercial Computer Software - Restricted
 Rights clause in FAR 52.227-19.
  
 Gaussian, Inc.
 340 Quinnipiac St., Bldg. 40, Wallingford CT 06492
  
  
 ---------------------------------------------------------------
 Warning -- This program may not be used in any manner that
 competes with the business of Gaussian, Inc. or will provide
 assistance to any competitor of Gaussian, Inc.  The licensee
 of this program is prohibited from giving any competitor of
 Gaussian, Inc. access to this program.  By using this program,
 the user acknowledges that Gaussian, Inc. is engaged in the
 business of creating and licensing software in the field of
 computational chemistry and represents and warrants to the
 licensee that it is not a competitor of Gaussian, Inc. and that
 it will not use this program in any manner prohibited above.
 ---------------------------------------------------------------
  

 Cite this work as:
 Gaussian 09, Revision A.02,
 M. J. Frisch, G. W. Trucks, H. B. Schlegel, G. E. Scuseria, 
 M. A. Robb, J. R. Cheeseman, G. Scalmani, V. Barone, B. Mennucci, 
 G. A. Petersson, H. Nakatsuji, M. Caricato, X. Li, H. P. Hratchian, 
 A. F. Izmaylov, J. Bloino, G. Zheng, J. L. Sonnenberg, M. Hada, 
 M. Ehara, K. Toyota, R. Fukuda, J. Hasegawa, M. Ishida, T. Nakajima, 
 Y. Honda, O. Kitao, H. Nakai, T. Vreven, J. A. Montgomery, Jr., 
 J. E. Peralta, F. Ogliaro, M. Bearpark, J. J. Heyd, E. Brothers, 
 K. N. Kudin, V. N. Staroverov, R. Kobayashi, J. Normand, 
 K. Raghavachari, A. Rendell, J. C. Burant, S. S. Iyengar, J. Tomasi, 
 M. Cossi, N. Rega, J. M. Millam, M. Klene, J. E. Knox, J. B. Cross, 
 V. Bakken, C. Adamo, J. Jaramillo, R. Gomperts, R. E. Stratmann, 
 O. Yazyev, A. J. Austin, R. Cammi, C. Pomelli, J. W. Ochterski, 
 R. L. Martin, K. Morokuma, V. G. Zakrzewski, G. A. Voth, 
 P. Salvador, J. J. Dannenberg, S. Dapprich, A. D. Daniels, 
 O. Farkas, J. B. Foresman, J. V. Ortiz, J. Cioslowski, 
 and D. J. Fox, Gaussian, Inc., Wallingford CT, 2009.
 
 ******************************************
 Gaussian 09:  IA32W-G09RevA.02 11-Jun-2009
                28-Nov-2024 
 ******************************************
 %chk=C:\G09W\Midterm1\E3freq.chk
 ----------------------------------
 # freq hf/6-311g geom=connectivity
 ----------------------------------
 1/10=4,30=1,38=1,57=2/1,3;
 2/12=2,17=6,18=5,40=1/2;
 3/5=4,6=6,11=9,16=1,25=1,30=1,71=2/1,2,3;
 4//1;
 5/5=2,38=5,98=1/2;
 8/6=4,10=90,11=11/1;
 10/13=10,15=4/2;
 11/6=3,8=1,9=11,15=111,16=1/1,2,10;
 10/6=1/2;
 6/7=2,8=2,9=2,10=2,18=1,28=1/1;
 7/8=1,10=1,25=1/1,2,3,16;
 1/10=4,30=1/3;
 99//99;
 -------------------
 Title Card Required
 -------------------
 Symbolic Z-matrix:
 Charge =  0 Multiplicity = 1
 C                     5.83829  -1.88823   0.00168 
 C                     7.23345  -1.88823   0.00168 
 C                     7.93099  -0.68048   0.00168 
 C                     7.23333   0.52803   0.00048 
 C                     5.83851   0.52795   0. 
 C                     5.14091  -0.68026   0.001 
 H                     5.28853  -2.84055   0.00213 
 H                     7.78296  -2.84074   0.00299 
 H                     9.03067  -0.6804    0.00231 
 H                     7.78353   1.48017   0.00042 
 H                     5.28839   1.48023  -0.00095 
 C                     3.60091  -0.68      0.00074 
 O                     2.88816  -1.91971   0.00121 
 H                     3.51295  -2.64857   0.0017 
 C                     2.91886   0.49106   0.00008 
 H                     3.12203   1.02265   0.90619 
 C                     1.40886   0.2056   -0.10005 
 O                     0.99118  -0.97964  -0.16567 
 C                     0.40658   1.37463  -0.11994 
 C                    -0.08796   1.65122   1.31203 
 H                     0.46076   1.04503   2.0022 
 H                     0.06137   2.68422   1.54764 
 H                    -1.12963   1.41659   1.38117 
 C                     1.09719   2.63349  -0.67665 
 H                     0.76405   3.4929   -0.13321 
 H                     2.15745   2.53436  -0.57218 
 H                     0.8499    2.74788  -1.71138 
 C                    -0.79177   1.0082   -1.01508 
 H                    -0.46074   0.89755  -2.02655 
 H                    -1.22088   0.08797  -0.67754 
 H                    -1.52632   1.7845   -0.96311 
 

 GradGradGradGradGradGradGradGradGradGradGradGradGradGradGradGradGradGrad
 Berny optimization.
 Initialization pass.
 Trust Radius=3.00D-01 FncErr=1.00D-07 GrdErr=1.00D-07
 Number of steps in this run=   2 maximum allowed number of steps=   2.
 GradGradGradGradGradGradGradGradGradGradGradGradGradGradGradGradGradGrad

                          Input orientation:                          
 ---------------------------------------------------------------------
 Center     Atomic      Atomic             Coordinates (Angstroms)
 Number     Number       Type             X           Y           Z
 ---------------------------------------------------------------------
      1          6           0        5.838290   -1.888232    0.001678
      2          6           0        7.233450   -1.888232    0.001678
      3          6           0        7.930988   -0.680481    0.001678
      4          6           0        7.233334    0.528028    0.000479
      5          6           0        5.838509    0.527950    0.000000
      6          6           0        5.140908   -0.680256    0.000996
      7          1           0        5.288531   -2.840549    0.002128
      8          1           0        7.782958   -2.840745    0.002993
      9          1           0        9.030668   -0.680401    0.002312
     10          1           0        7.783534    1.480171    0.000420
     11          1           0        5.288387    1.480231   -0.000953
     12          6           0        3.600909   -0.679999    0.000744
     13          8           0        2.888156   -1.919711    0.001210
     14          1           0        3.512949   -2.648568    0.001703
     15          6           0        2.918860    0.491058    0.000082
     16          1           0        3.122033    1.022653    0.906187
     17          6           0        1.408864    0.205600   -0.100048
     18          8           0        0.991181   -0.979644   -0.165670
     19          6           0        0.406579    1.374629   -0.119940
     20          6           0       -0.087962    1.651223    1.312026
     21          1           0        0.460763    1.045034    2.002196
     22          1           0        0.061370    2.684221    1.547643
     23          1           0       -1.129627    1.416593    1.381174
     24          6           0        1.097186    2.633490   -0.676653
     25          1           0        0.764048    3.492900   -0.133207
     26          1           0        2.157449    2.534356   -0.572177
     27          1           0        0.849900    2.747877   -1.711383
     28          6           0       -0.791774    1.008202   -1.015084
     29          1           0       -0.460742    0.897547   -2.026555
     30          1           0       -1.220878    0.087967   -0.677540
     31          1           0       -1.526323    1.784499   -0.963108
 ---------------------------------------------------------------------
                    Distance matrix (angstroms):
                    1          2          3          4          5
     1  C    0.000000
     2  C    1.395160   0.000000
     3  C    2.416205   1.394712   0.000000
     4  C    2.790065   2.416260   1.395427   0.000000
     5  C    2.416183   2.789946   2.416356   1.394825   0.000000
     6  C    1.394829   2.416183   2.790080   2.416236   1.395138
     7  H    1.099610   2.165553   3.412986   3.889675   3.413102
     8  H    2.165414   1.099655   2.165330   3.413316   3.889601
     9  H    3.413229   2.165375   1.099680   2.165806   3.413209
    10  H    3.889745   3.413024   2.165678   1.099680   2.165606
    11  H    3.413055   3.889707   3.413506   2.165528   1.099761
    12  C    2.542775   3.828209   4.330080   3.828035   2.542833
    13  O    2.950302   4.345408   5.192865   4.987184   3.833488
    14  H    2.446492   3.797399   4.836573   4.892037   3.936814
    15  C    3.766178   4.927141   5.147226   4.314633   2.919882
    16  H    4.082823   5.118119   5.181202   4.238839   2.906054
    17  C    4.900439   6.190338   6.582826   5.834254   4.442485
    18  O    4.934370   6.310266   6.948268   6.423796   5.079063
    19  C    6.337550   7.567511   7.800962   6.880104   5.498829
    20  C    7.026038   8.236979   8.453249   7.522174   6.173023
    21  H    6.443906   7.646922   7.923619   7.081094   5.761625
    22  H    7.527958   8.645003   8.697248   7.647219   6.357676
    23  H    7.834332   9.097579   9.401887   8.522617   7.159068
    24  C    6.586666   7.652440   7.625181   6.522560   5.231759
    25  H    7.397480   8.415934   8.294597   7.117584   5.878676
    26  H    5.782489   6.756803   6.633117   5.487977   4.231224
    27  H    7.022259   8.073277   8.051710   6.971832   5.722162
    28  C    7.306222   8.592285   8.942709   8.103351   6.724708
    29  H    7.179979   8.430592   8.776391   7.965188   6.627525
    30  H    7.361967   8.708752   9.209153   8.492766   7.105462
    31  H    8.285970   9.547428   9.820778   8.901619   7.533077
                    6          7          8          9         10
     6  C    0.000000
     7  H    2.165331   0.000000
     8  H    3.412938   2.494427   0.000000
     9  H    3.889760   4.320860   2.494768   0.000000
    10  H    3.413344   4.989355   4.320917   2.494678   0.000000
    11  H    2.165516   4.320781   4.989362   4.321228   2.495147
    12  C    1.540000   2.741541   4.707267   5.429760   4.707515
    13  O    2.571214   2.570942   4.980702   6.266287   5.960195
    14  H    2.554311   1.785931   4.274332   5.858234   5.940066
    15  C    2.511867   4.088392   5.895793   6.223064   4.964212
    16  H    2.791975   4.520549   6.120933   6.215252   4.770674
    17  C    3.837070   4.933689   7.065403   7.673811   6.501619
    18  O    4.163850   4.685973   7.044174   8.046808   7.225949
    19  C    5.162466   6.451053   8.496792   8.866398   7.378692
    20  C    5.873302   7.127308   9.156567   9.502696   7.981856
    21  H    5.374494   6.511941   8.527053   8.967716   7.603909
    22  H    6.285979   7.761116   9.619466   9.703455   7.967149
    23  H    6.754353   7.824179   9.972888  10.465670   9.019699
    24  C    5.271794   6.927714   8.667682   8.624558   6.818785
    25  H    6.048979   7.784718   9.455089   9.261308   7.303569
    26  H    4.423040   6.246847   7.801851   7.609589   5.752565
    27  H    5.753007   7.339487   9.068577   9.034092   7.253457
    28  C    6.251402   7.267580   9.453936  10.018325   8.648116
    29  H    6.162703   7.151437   9.276448   9.833264   8.509769
    30  H    6.443827   7.170116   9.492605  10.302756   9.136591
    31  H    7.173318   8.292465  10.439777  10.883834   9.364531
                   11         12         13         14         15
    11  H    0.000000
    12  C    2.741201   0.000000
    13  O    4.161817   1.430000   0.000000
    14  H    4.494349   1.970533   0.960000   0.000000
    15  C    2.567708   1.355200   2.410965   3.195340   0.000000
    16  H    2.392775   1.987002   3.087262   3.801154   1.070000
    17  C    4.084753   2.366327   2.591429   3.547366   1.540000
    18  O    4.954200   2.632139   2.123697   3.028636   2.430306
    19  C    4.884400   3.799974   4.126206   5.084334   2.665832
    20  C    5.536992   4.556514   4.829812   5.759489   3.479678
    21  H    5.244803   4.103909   4.322718   5.192351   3.218321
    22  H    5.582961   5.122422   5.619463   6.537734   3.920479
    23  H    6.565458   5.355302   5.401648   6.323131   4.376560
    24  C    4.399175   4.207934   4.939505   5.847753   2.892487
    25  H    4.953582   5.047654   5.816035   6.729955   3.697571
    26  H    3.352648   3.569859   4.549881   5.387896   2.254394
    27  H    4.922669   4.716966   5.373438   6.256846   3.507555
    28  C    6.182203   4.814311   4.811176   5.739030   3.881598
    29  H    6.123322   4.805788   4.823265   5.699033   3.961590
    30  H    6.690792   4.929449   4.623379   5.509910   4.214153
    31  H    6.889020   5.769858   5.842833   6.780649   4.728676
                   16         17         18         19         20
    16  H    0.000000
    17  C    2.148263   0.000000
    18  O    3.114259   1.258400   0.000000
    19  C    2.924127   1.540000   2.426202   0.000000
    20  C    3.296039   2.514809   3.204621   1.540000   0.000000
    21  H    2.878211   2.454176   3.013356   2.148263   1.070000
    22  H    3.541177   3.267137   4.150169   2.148263   1.070000
    23  H    4.296210   3.178752   3.554224   2.148263   1.070000
    24  C    3.033181   2.514809   3.650628   1.540000   2.514810
    25  H    3.569672   3.350108   4.478426   2.148263   2.491263
    26  H    2.324055   2.491262   3.724732   2.148263   3.061375
    27  H    3.871778   3.061374   4.037772   2.148263   3.350109
    28  C    4.359975   2.514810   2.802136   1.540000   2.514809
    29  H    4.631728   2.772299   3.015762   2.148263   3.442835
    30  H    4.716218   2.694972   2.508986   2.148263   2.772299
    31  H    5.067730   3.442835   3.822855   2.148263   2.694973
                   21         22         23         24         25
    21  H    0.000000
    22  H    1.747303   0.000000
    23  H    1.747303   1.747303   0.000000
    24  C    3.178752   2.454177   3.267138   0.000000
    25  H    3.262511   1.993233   3.192242   1.070000   0.000000
    26  H    3.424065   2.984903   3.983698   1.070000   1.747303
    27  H    4.103873   3.353666   3.905734   1.070000   1.747303
    28  C    3.267138   3.178751   2.454176   2.514809   3.061374
    29  H    4.135428   4.029850   3.511329   2.694972   3.438129
    30  H    3.305281   3.651867   2.451913   3.442835   3.978668
    31  H    3.645319   3.103891   2.405906   2.772299   2.975428
                   26         27         28         29         30
    26  H    0.000000
    27  H    1.747303   0.000000
    28  C    3.350109   2.491263   0.000000
    29  H    3.413105   2.289288   1.070000   0.000000
    30  H    4.172411   3.525915   1.070000   1.747303   0.000000
    31  H    3.779589   2.671039   1.070000   1.747303   1.747303
                   31
    31  H    0.000000
 Stoichiometry    C13H16O2
 Framework group  C1[X(C13H16O2)]
 Deg. of freedom    87
 Full point group                 C1      NOp   1
 Largest Abelian subgroup         C1      NOp   1
 Largest concise Abelian subgroup C1      NOp   1
                         Standard orientation:                         
 ---------------------------------------------------------------------
 Center     Atomic      Atomic             Coordinates (Angstroms)
 Number     Number       Type             X           Y           Z
 ---------------------------------------------------------------------
      1          6           0        3.031799   -1.061764   -0.001759
      2          6           0        4.361962   -0.641744   -0.028601
      3          6           0        4.663341    0.719953   -0.041768
      4          6           0        3.634276    1.662337   -0.029292
      5          6           0        2.304447    1.242340   -0.002936
      6          6           0        2.003164   -0.119804    0.011228
      7          1           0        2.794410   -2.135390    0.009068
      8          1           0        5.172703   -1.384611   -0.038057
      9          1           0        5.711778    1.051098   -0.062291
     10          1           0        3.872146    2.735931   -0.039737
     11          1           0        1.493198    1.984804    0.006894
     12          6           0        0.534826   -0.583186    0.040605
     13          8           0        0.228574   -1.979938    0.054524
     14          1           0        1.043733   -2.486870    0.042844
     15          6           0       -0.468073    0.328185    0.053309
     16          1           0       -0.417752    0.901343    0.955450
     17          6           0       -1.823612   -0.399177   -0.017811
     18          8           0       -1.866159   -1.655528   -0.075633
     19          6           0       -3.131573    0.413742   -0.018171
     20          6           0       -3.659997    0.536625    1.423101
     21          1           0       -2.941603    0.127627    2.102461
     22          1           0       -3.824328    1.567957    1.656018
     23          1           0       -4.581212   -0.000328    1.512229
     24          6           0       -2.862439    1.818977   -0.587805
     25          1           0       -3.428828    2.541249   -0.037871
     26          1           0       -1.819798    2.044226   -0.503767
     27          1           0       -3.151697    1.847821   -1.617561
     28          6           0       -4.180242   -0.301456   -0.890171
     29          1           0       -3.849933   -0.312975   -1.907847
     30          1           0       -4.306052   -1.306280   -0.544627
     31          1           0       -5.113362    0.217963   -0.823910
 ---------------------------------------------------------------------
 Rotational constants (GHZ):      1.4988810      0.2760814      0.2458878
 Standard basis: 6-311G (5D, 7F)
 There are   243 symmetry adapted basis functions of A   symmetry.
 Integral buffers will be    262144 words long.
 Raffenetti 1 integral format.
 Two-electron integral symmetry is turned on.
   243 basis functions,   470 primitive gaussians,   243 cartesian basis functions
    55 alpha electrons       55 beta electrons
       nuclear repulsion energy       949.1490877252 Hartrees.
 NAtoms=   31 NActive=   31 NUniq=   31 SFac= 7.50D-01 NAtFMM=   80 NAOKFM=F Big=F
 One-electron integrals computed using PRISM.
 NBasis=   243 RedAO= T  NBF=   243
 NBsUse=   243 1.00D-06 NBFU=   243
 Harris functional with IExCor=  205 diagonalized for initial guess.
 ExpMin= 1.03D-01 ExpMax= 8.59D+03 ExpMxC= 1.30D+03 IAcc=1 IRadAn=         1 AccDes= 0.00D+00
 HarFok:  IExCor=  205 AccDes= 0.00D+00 IRadAn=         1 IDoV= 1
 ScaDFX=  1.000000  1.000000  1.000000  1.000000
 FoFCou: FMM=F IPFlag=           0 FMFlag=      100000 FMFlg1=           0
         NFxFlg=           0 DoJE=T BraDBF=F KetDBF=T FulRan=T
         Omega=  0.000000  0.000000  1.000000  0.000000  0.000000 ICntrl=     500 IOpCl=  0
         NMat0=    1 NMatS0=    1 NMatT0=    0 NMatD0=    1 NMtDS0=    0 NMtDT0=    0
         I1Cent=           4 NGrid=           0.
 Petite list used in FoFCou.
 Initial guess orbital symmetries:
       Occupied  (A) (A) (A) (A) (A) (A) (A) (A) (A) (A) (A) (A)
                 (A) (A) (A) (A) (A) (A) (A) (A) (A) (A) (A) (A)
                 (A) (A) (A) (A) (A) (A) (A) (A) (A) (A) (A) (A)
                 (A) (A) (A) (A) (A) (A) (A) (A) (A) (A) (A) (A)
                 (A) (A) (A) (A) (A) (A) (A)
       Virtual   (A) (A) (A) (A) (A) (A) (A) (A) (A) (A) (A) (A)
                 (A) (A) (A) (A) (A) (A) (A) (A) (A) (A) (A) (A)
                 (A) (A) (A) (A) (A) (A) (A) (A) (A) (A) (A) (A)
                 (A) (A) (A) (A) (A) (A) (A) (A) (A) (A) (A) (A)
                 (A) (A) (A) (A) (A) (A) (A) (A) (A) (A) (A) (A)
                 (A) (A) (A) (A) (A) (A) (A) (A) (A) (A) (A) (A)
                 (A) (A) (A) (A) (A) (A) (A) (A) (A) (A) (A) (A)
                 (A) (A) (A) (A) (A) (A) (A) (A) (A) (A) (A) (A)
                 (A) (A) (A) (A) (A) (A) (A) (A) (A) (A) (A) (A)
                 (A) (A) (A) (A) (A) (A) (A) (A) (A) (A) (A) (A)
                 (A) (A) (A) (A) (A) (A) (A) (A) (A) (A) (A) (A)
                 (A) (A) (A) (A) (A) (A) (A) (A) (A) (A) (A) (A)
                 (A) (A) (A) (A) (A) (A) (A) (A) (A) (A) (A) (A)
                 (A) (A) (A) (A) (A) (A) (A) (A) (A) (A) (A) (A)
                 (A) (A) (A) (A) (A) (A) (A) (A) (A) (A) (A) (A)
                 (A) (A) (A) (A) (A) (A) (A) (A)
 The electronic state of the initial guess is 1-A.
 Requested convergence on RMS density matrix=1.00D-08 within 128 cycles.
 Requested convergence on MAX density matrix=1.00D-06.
 Requested convergence on             energy=1.00D-06.
 No special actions if energy rises.
 Integral accuracy reduced to 1.0D-05 until final iterations.
 Initial convergence to 1.0D-05 achieved.  Increase integral accuracy.
 SCF Done:  E(RHF) =  -651.064143193     A.U. after   18 cycles
             Convg  =    0.5975D-08             -V/T =  1.9998
 Range of M.O.s used for correlation:     1   243
 NBasis=   243 NAE=    55 NBE=    55 NFC=     0 NFV=     0
 NROrb=    243 NOA=    55 NOB=    55 NVA=   188 NVB=   188

 **** Warning!!: The largest alpha MO coefficient is  0.17239784D+02

          Differentiating once with respect to electric field.
                with respect to dipole field.
          Electric field/nuclear overlap derivatives assumed to be zero.
          There are     3 degrees of freedom in the 1st order CPHF.  IDoFFX=0.
      3 vectors produced by pass  0 Test12= 3.45D-13 3.33D-08 XBig12= 6.22D+01 4.44D+00.
 AX will form     3 AO Fock derivatives at one time.
      3 vectors produced by pass  1 Test12= 3.45D-13 3.33D-08 XBig12= 6.55D+00 6.78D-01.
      3 vectors produced by pass  2 Test12= 3.45D-13 3.33D-08 XBig12= 9.23D-01 3.37D-01.
      3 vectors produced by pass  3 Test12= 3.45D-13 3.33D-08 XBig12= 1.20D-01 8.72D-02.
      3 vectors produced by pass  4 Test12= 3.45D-13 3.33D-08 XBig12= 1.88D-02 2.72D-02.
      3 vectors produced by pass  5 Test12= 3.45D-13 3.33D-08 XBig12= 1.82D-03 1.09D-02.
      3 vectors produced by pass  6 Test12= 3.45D-13 3.33D-08 XBig12= 1.98D-04 4.19D-03.
      3 vectors produced by pass  7 Test12= 3.45D-13 3.33D-08 XBig12= 2.64D-05 1.28D-03.
      3 vectors produced by pass  8 Test12= 3.45D-13 3.33D-08 XBig12= 1.91D-06 3.76D-04.
      3 vectors produced by pass  9 Test12= 3.45D-13 3.33D-08 XBig12= 1.11D-07 5.25D-05.
      3 vectors produced by pass 10 Test12= 3.45D-13 3.33D-08 XBig12= 1.23D-08 1.60D-05.
      3 vectors produced by pass 11 Test12= 3.45D-13 3.33D-08 XBig12= 7.59D-10 4.15D-06.
      3 vectors produced by pass 12 Test12= 3.45D-13 3.33D-08 XBig12= 2.26D-11 8.86D-07.
      2 vectors produced by pass 13 Test12= 3.45D-13 3.33D-08 XBig12= 8.05D-13 1.29D-07.
 Inverted reduced A of dimension    41 with in-core refinement.
 End of Minotr Frequency-dependent properties file   721 does not exist.
 End of Minotr Frequency-dependent properties file   722 does not exist.
 Symmetrizing basis deriv contribution to polar:
 IMax=3 JMax=2 DiffMx= 0.00D+00
 G2DrvN: will do    32 centers at a time, making    1 passes doing MaxLOS=1.
 Calling FoFCou, ICntrl=  3107 FMM=F I1Cent=   0 AccDes= 0.00D+00.
 FoFDir/FoFCou used for L=0 through L=1.
 End of G2Drv Frequency-dependent properties file   721 does not exist.
 End of G2Drv Frequency-dependent properties file   722 does not exist.
          IDoAtm=1111111111111111111111111111111
          Differentiating once with respect to electric field.
                with respect to dipole field.
          Differentiating once with respect to nuclear coordinates.
          There are    96 degrees of freedom in the 1st order CPHF.  IDoFFX=5.
 Will reuse    3 saved solutions.
     90 vectors produced by pass  0 Test12= 1.08D-14 1.04D-09 XBig12= 1.16D-01 9.85D-02.
 AX will form    90 AO Fock derivatives at one time.
     90 vectors produced by pass  1 Test12= 1.08D-14 1.04D-09 XBig12= 1.18D-02 2.30D-02.
     90 vectors produced by pass  2 Test12= 1.08D-14 1.04D-09 XBig12= 9.51D-05 2.24D-03.
     90 vectors produced by pass  3 Test12= 1.08D-14 1.04D-09 XBig12= 8.41D-07 1.04D-04.
     90 vectors produced by pass  4 Test12= 1.08D-14 1.04D-09 XBig12= 5.27D-09 8.86D-06.
     90 vectors produced by pass  5 Test12= 1.08D-14 1.04D-09 XBig12= 3.04D-11 5.67D-07.
     81 vectors produced by pass  6 Test12= 1.08D-14 1.04D-09 XBig12= 1.70D-13 3.12D-08.
     23 vectors produced by pass  7 Test12= 1.08D-14 1.04D-09 XBig12= 9.06D-16 2.58D-09.
 Inverted reduced A of dimension   644 with in-core refinement.
 Isotropic polarizability for W=    0.000000      143.19 Bohr**3.
 End of Minotr Frequency-dependent properties file   721 does not exist.
 End of Minotr Frequency-dependent properties file   722 does not exist.

 **********************************************************************

            Population analysis using the SCF density.

 **********************************************************************

 Orbital symmetries:
       Occupied  (A) (A) (A) (A) (A) (A) (A) (A) (A) (A) (A) (A)
                 (A) (A) (A) (A) (A) (A) (A) (A) (A) (A) (A) (A)
                 (A) (A) (A) (A) (A) (A) (A) (A) (A) (A) (A) (A)
                 (A) (A) (A) (A) (A) (A) (A) (A) (A) (A) (A) (A)
                 (A) (A) (A) (A) (A) (A) (A)
       Virtual   (A) (A) (A) (A) (A) (A) (A) (A) (A) (A) (A) (A)
                 (A) (A) (A) (A) (A) (A) (A) (A) (A) (A) (A) (A)
                 (A) (A) (A) (A) (A) (A) (A) (A) (A) (A) (A) (A)
                 (A) (A) (A) (A) (A) (A) (A) (A) (A) (A) (A) (A)
                 (A) (A) (A) (A) (A) (A) (A) (A) (A) (A) (A) (A)
                 (A) (A) (A) (A) (A) (A) (A) (A) (A) (A) (A) (A)
                 (A) (A) (A) (A) (A) (A) (A) (A) (A) (A) (A) (A)
                 (A) (A) (A) (A) (A) (A) (A) (A) (A) (A) (A) (A)
                 (A) (A) (A) (A) (A) (A) (A) (A) (A) (A) (A) (A)
                 (A) (A) (A) (A) (A) (A) (A) (A) (A) (A) (A) (A)
                 (A) (A) (A) (A) (A) (A) (A) (A) (A) (A) (A) (A)
                 (A) (A) (A) (A) (A) (A) (A) (A) (A) (A) (A) (A)
                 (A) (A) (A) (A) (A) (A) (A) (A) (A) (A) (A) (A)
                 (A) (A) (A) (A) (A) (A) (A) (A) (A) (A) (A) (A)
                 (A) (A) (A) (A) (A) (A) (A) (A) (A) (A) (A) (A)
                 (A) (A) (A) (A) (A) (A) (A) (A)
 The electronic state is 1-A.
 Alpha  occ. eigenvalues --  -20.59908 -20.51047 -11.36705 -11.32125 -11.29048
 Alpha  occ. eigenvalues --  -11.28105 -11.27384 -11.27362 -11.27223 -11.27017
 Alpha  occ. eigenvalues --  -11.23883 -11.22686 -11.20678 -11.19748 -11.19414
 Alpha  occ. eigenvalues --   -1.41143  -1.34371  -1.19216  -1.10408  -1.08989
 Alpha  occ. eigenvalues --   -1.04936  -1.03243  -0.93954  -0.93346  -0.88449
 Alpha  occ. eigenvalues --   -0.85933  -0.83870  -0.77918  -0.76183  -0.70257
 Alpha  occ. eigenvalues --   -0.68403  -0.65715  -0.64879  -0.63989  -0.61677
 Alpha  occ. eigenvalues --   -0.61171  -0.60582  -0.59397  -0.58781  -0.57015
 Alpha  occ. eigenvalues --   -0.55523  -0.54847  -0.53018  -0.52860  -0.51929
 Alpha  occ. eigenvalues --   -0.51368  -0.50535  -0.49685  -0.47495  -0.44724
 Alpha  occ. eigenvalues --   -0.43576  -0.39630  -0.36606  -0.36124  -0.32113
 Alpha virt. eigenvalues --    0.05188   0.10676   0.13094   0.15454   0.15674
 Alpha virt. eigenvalues --    0.15909   0.17522   0.18425   0.19342   0.20676
 Alpha virt. eigenvalues --    0.21395   0.21823   0.22885   0.24520   0.25164
 Alpha virt. eigenvalues --    0.26336   0.26958   0.27604   0.29785   0.31038
 Alpha virt. eigenvalues --    0.33102   0.33917   0.34639   0.37070   0.38695
 Alpha virt. eigenvalues --    0.39411   0.40209   0.41240   0.41812   0.42943
 Alpha virt. eigenvalues --    0.44397   0.45491   0.48844   0.49996   0.51108
 Alpha virt. eigenvalues --    0.52240   0.52992   0.54052   0.54597   0.54825
 Alpha virt. eigenvalues --    0.55530   0.55912   0.58402   0.59358   0.60186
 Alpha virt. eigenvalues --    0.60297   0.61094   0.61700   0.62573   0.63258
 Alpha virt. eigenvalues --    0.64321   0.64383   0.67518   0.67710   0.69995
 Alpha virt. eigenvalues --    0.71831   0.72036   0.74076   0.74770   0.76898
 Alpha virt. eigenvalues --    0.78005   0.79277   0.80119   0.80474   0.80713
 Alpha virt. eigenvalues --    0.81086   0.81648   0.82117   0.82549   0.82952
 Alpha virt. eigenvalues --    0.83611   0.84266   0.84671   0.84916   0.85701
 Alpha virt. eigenvalues --    0.86751   0.87799   0.88228   0.89178   0.90896
 Alpha virt. eigenvalues --    0.92081   0.94030   0.94427   0.95039   0.95431
 Alpha virt. eigenvalues --    0.96702   0.99674   1.02723   1.04313   1.07349
 Alpha virt. eigenvalues --    1.09306   1.10214   1.10918   1.11296   1.13020
 Alpha virt. eigenvalues --    1.14854   1.16325   1.17883   1.20714   1.24570
 Alpha virt. eigenvalues --    1.25119   1.26864   1.30312   1.31200   1.32234
 Alpha virt. eigenvalues --    1.35921   1.40797   1.48574   1.53652   1.69020
 Alpha virt. eigenvalues --    1.88073   2.18581   2.44629   2.53986   2.55166
 Alpha virt. eigenvalues --    2.59677   2.60280   2.61381   2.63612   2.64855
 Alpha virt. eigenvalues --    2.66608   2.66836   2.68205   2.69423   2.70834
 Alpha virt. eigenvalues --    2.72193   2.74547   2.84761   2.88651   2.91438
 Alpha virt. eigenvalues --    2.93491   2.97459   3.03047   3.03846   3.06895
 Alpha virt. eigenvalues --    3.09664   3.12942   3.14397   3.18243   3.21433
 Alpha virt. eigenvalues --    3.23136   3.23528   3.25268   3.26415   3.28544
 Alpha virt. eigenvalues --    3.31346   3.31726   3.33313   3.34337   3.35149
 Alpha virt. eigenvalues --    3.39675   3.42422   3.44490   3.46865   3.49362
 Alpha virt. eigenvalues --    3.50848   3.52818   3.55829   3.57658   3.59550
 Alpha virt. eigenvalues --    3.61484   3.63265   3.65118   3.67939   3.68851
 Alpha virt. eigenvalues --    3.72556   3.84991   5.35406   5.47959   5.50958
 Alpha virt. eigenvalues --    5.56343   5.69037   5.80937  24.23407  24.40225
 Alpha virt. eigenvalues --   24.47499  24.49627  24.55394  24.62824  24.67556
 Alpha virt. eigenvalues --   24.68859  24.74488  24.77164  24.83056  24.86021
 Alpha virt. eigenvalues --   25.01500  51.54666  51.68167
          Condensed to atoms (all electrons):
              1          2          3          4          5          6
     1  C    5.210945   0.428678  -0.092042  -0.037306  -0.071635   0.357883
     2  C    0.428678   5.066207   0.493613  -0.068558  -0.030065  -0.055212
     3  C   -0.092042   0.493613   5.013592   0.478278  -0.089844  -0.008688
     4  C   -0.037306  -0.068558   0.478278   5.116895   0.428503  -0.067847
     5  C   -0.071635  -0.030065  -0.089844   0.428503   5.044268   0.475341
     6  C    0.357883  -0.055212  -0.008688  -0.067847   0.475341   5.762042
     7  H    0.391984  -0.015506   0.004575  -0.000260   0.002592  -0.076690
     8  H   -0.036845   0.396159  -0.036737   0.005508  -0.000317   0.005140
     9  H    0.008168  -0.041048   0.397213  -0.041636   0.007600  -0.001788
    10  H   -0.000279   0.005458  -0.038810   0.396178  -0.035664   0.005732
    11  H    0.004143  -0.000188   0.004038  -0.033773   0.387850  -0.037477
    12  C   -0.042834   0.015585   0.000054   0.012772  -0.002585  -0.079545
    13  O    0.002638   0.001268  -0.000034  -0.000041   0.003308  -0.116829
    14  H    0.000741  -0.000059   0.000017  -0.000025   0.000395  -0.002802
    15  C    0.010063  -0.000562   0.000062   0.000402   0.001448  -0.112164
    16  H    0.000205   0.000087  -0.000061   0.000543   0.000837  -0.019215
    17  C   -0.000328   0.000022   0.000001  -0.000026   0.000148   0.012921
    18  O    0.000187   0.000002   0.000000   0.000000   0.000021  -0.001477
    19  C    0.000026   0.000000   0.000000   0.000001   0.000102  -0.001575
    20  C    0.000000   0.000000   0.000000   0.000000  -0.000003   0.000023
    21  H   -0.000002   0.000000   0.000000   0.000000   0.000000   0.000043
    22  H    0.000000   0.000000   0.000000   0.000000   0.000000  -0.000002
    23  H    0.000000   0.000000   0.000000   0.000000   0.000000  -0.000001
    24  C   -0.000002   0.000000   0.000000  -0.000002  -0.000074   0.000248
    25  H    0.000000   0.000000   0.000000   0.000000  -0.000002   0.000001
    26  H    0.000008   0.000000   0.000000  -0.000004   0.000173  -0.000248
    27  H    0.000000   0.000000   0.000000   0.000000  -0.000004  -0.000009
    28  C    0.000000   0.000000   0.000000   0.000000  -0.000001   0.000011
    29  H    0.000000   0.000000   0.000000   0.000000   0.000000  -0.000002
    30  H    0.000000   0.000000   0.000000   0.000000   0.000000   0.000000
    31  H    0.000000   0.000000   0.000000   0.000000   0.000000   0.000000
              7          8          9         10         11         12
     1  C    0.391984  -0.036845   0.008168  -0.000279   0.004143  -0.042834
     2  C   -0.015506   0.396159  -0.041048   0.005458  -0.000188   0.015585
     3  C    0.004575  -0.036737   0.397213  -0.038810   0.004038   0.000054
     4  C   -0.000260   0.005508  -0.041636   0.396178  -0.033773   0.012772
     5  C    0.002592  -0.000317   0.007600  -0.035664   0.387850  -0.002585
     6  C   -0.076690   0.005140  -0.001788   0.005732  -0.037477  -0.079545
     7  H    0.513326  -0.003403  -0.000166   0.000022  -0.000215   0.006156
     8  H   -0.003403   0.498201  -0.003895  -0.000185   0.000017  -0.000315
     9  H   -0.000166  -0.003895   0.501327  -0.003936  -0.000128  -0.000054
    10  H    0.000022  -0.000185  -0.003936   0.496905  -0.003100  -0.000296
    11  H   -0.000215   0.000017  -0.000128  -0.003100   0.454768  -0.001243
    12  C    0.006156  -0.000315  -0.000054  -0.000296  -0.001243   5.342093
    13  O   -0.001554  -0.000001   0.000000   0.000001   0.000193   0.329351
    14  H    0.009380  -0.000027   0.000001   0.000000  -0.000014  -0.027709
    15  C    0.001862   0.000003   0.000000   0.000040   0.006103   0.092666
    16  H   -0.000013   0.000001   0.000000   0.000010  -0.000320  -0.029209
    17  C   -0.000022   0.000000   0.000000   0.000000   0.000403  -0.016142
    18  O    0.000063   0.000000   0.000000   0.000000   0.000003   0.023414
    19  C    0.000003   0.000000   0.000000   0.000000  -0.000104   0.012134
    20  C    0.000000   0.000000   0.000000   0.000000  -0.000001  -0.000546
    21  H    0.000000   0.000000   0.000000   0.000000  -0.000002  -0.000017
    22  H    0.000000   0.000000   0.000000   0.000000   0.000001   0.000035
    23  H    0.000000   0.000000   0.000000   0.000000   0.000000   0.000048
    24  C    0.000000   0.000000   0.000000   0.000000   0.000177   0.000433
    25  H    0.000000   0.000000   0.000000   0.000000   0.000001  -0.000047
    26  H    0.000001   0.000000   0.000000  -0.000002   0.000607   0.000626
    27  H    0.000000   0.000000   0.000000   0.000000   0.000000   0.000014
    28  C    0.000000   0.000000   0.000000   0.000000  -0.000001  -0.001190
    29  H    0.000000   0.000000   0.000000   0.000000   0.000000  -0.000113
    30  H    0.000000   0.000000   0.000000   0.000000   0.000000  -0.000212
    31  H    0.000000   0.000000   0.000000   0.000000   0.000000   0.000050
             13         14         15         16         17         18
     1  C    0.002638   0.000741   0.010063   0.000205  -0.000328   0.000187
     2  C    0.001268  -0.000059  -0.000562   0.000087   0.000022   0.000002
     3  C   -0.000034   0.000017   0.000062  -0.000061   0.000001   0.000000
     4  C   -0.000041  -0.000025   0.000402   0.000543  -0.000026   0.000000
     5  C    0.003308   0.000395   0.001448   0.000837   0.000148   0.000021
     6  C   -0.116829  -0.002802  -0.112164  -0.019215   0.012921  -0.001477
     7  H   -0.001554   0.009380   0.001862  -0.000013  -0.000022   0.000063
     8  H   -0.000001  -0.000027   0.000003   0.000001   0.000000   0.000000
     9  H    0.000000   0.000001   0.000000   0.000000   0.000000   0.000000
    10  H    0.000001   0.000000   0.000040   0.000010   0.000000   0.000000
    11  H    0.000193  -0.000014   0.006103  -0.000320   0.000403   0.000003
    12  C    0.329351  -0.027709   0.092666  -0.029209  -0.016142   0.023414
    13  O    8.443163   0.254168  -0.158608   0.004457   0.006984  -0.110150
    14  H    0.254168   0.364507   0.007320  -0.000379  -0.000176   0.004460
    15  C   -0.158608   0.007320   6.439296   0.339898   0.047646  -0.161076
    16  H    0.004457  -0.000379   0.339898   0.512718  -0.040796   0.004217
    17  C    0.006984  -0.000176   0.047646  -0.040796   5.207337   0.575667
    18  O   -0.110150   0.004460  -0.161076   0.004217   0.575667   8.274594
    19  C   -0.001798   0.000132  -0.156750   0.008885  -0.070680  -0.140349
    20  C    0.000047  -0.000007   0.000736   0.000797  -0.069876   0.004973
    21  H    0.000065  -0.000001   0.002394   0.000637   0.000926   0.001988
    22  H   -0.000003   0.000000  -0.000169  -0.000100   0.003953  -0.000103
    23  H    0.000000   0.000000  -0.000367   0.000002   0.001764  -0.000126
    24  C    0.000034  -0.000004   0.004012  -0.006799  -0.063735   0.005696
    25  H   -0.000001   0.000000  -0.000488   0.000107   0.007861  -0.000228
    26  H    0.000001  -0.000005  -0.008405   0.000126   0.002644   0.000412
    27  H    0.000001   0.000000   0.000398   0.000126   0.001343  -0.000200
    28  C    0.000036  -0.000002   0.008384  -0.000052  -0.074447   0.006314
    29  H   -0.000008   0.000000  -0.000216  -0.000002  -0.005649   0.001166
    30  H    0.000061  -0.000001   0.002009  -0.000087  -0.006734   0.011956
    31  H   -0.000001   0.000000  -0.000491   0.000017   0.012027  -0.000089
             19         20         21         22         23         24
     1  C    0.000026   0.000000  -0.000002   0.000000   0.000000  -0.000002
     2  C    0.000000   0.000000   0.000000   0.000000   0.000000   0.000000
     3  C    0.000000   0.000000   0.000000   0.000000   0.000000   0.000000
     4  C    0.000001   0.000000   0.000000   0.000000   0.000000  -0.000002
     5  C    0.000102  -0.000003   0.000000   0.000000   0.000000  -0.000074
     6  C   -0.001575   0.000023   0.000043  -0.000002  -0.000001   0.000248
     7  H    0.000003   0.000000   0.000000   0.000000   0.000000   0.000000
     8  H    0.000000   0.000000   0.000000   0.000000   0.000000   0.000000
     9  H    0.000000   0.000000   0.000000   0.000000   0.000000   0.000000
    10  H    0.000000   0.000000   0.000000   0.000000   0.000000   0.000000
    11  H   -0.000104  -0.000001  -0.000002   0.000001   0.000000   0.000177
    12  C    0.012134  -0.000546  -0.000017   0.000035   0.000048   0.000433
    13  O   -0.001798   0.000047   0.000065  -0.000003   0.000000   0.000034
    14  H    0.000132  -0.000007  -0.000001   0.000000   0.000000  -0.000004
    15  C   -0.156750   0.000736   0.002394  -0.000169  -0.000367   0.004012
    16  H    0.008885   0.000797   0.000637  -0.000100   0.000002  -0.006799
    17  C   -0.070680  -0.069876   0.000926   0.003953   0.001764  -0.063735
    18  O   -0.140349   0.004973   0.001988  -0.000103  -0.000126   0.005696
    19  C    6.655494   0.112783  -0.063151  -0.053515  -0.052948   0.070439
    20  C    0.112783   5.388817   0.389995   0.394418   0.399795  -0.074176
    21  H   -0.063151   0.389995   0.526056  -0.026900  -0.021993   0.006315
    22  H   -0.053515   0.394418  -0.026900   0.545058  -0.026598  -0.010251
    23  H   -0.052948   0.399795  -0.021993  -0.026598   0.507316   0.006503
    24  C    0.070439  -0.074176   0.006315  -0.010251   0.006503   5.463764
    25  H   -0.046969  -0.012302   0.000500  -0.000500   0.000889   0.380294
    26  H   -0.061804   0.004840  -0.000467   0.000922  -0.000478   0.394818
    27  H   -0.055916   0.007940  -0.000525   0.000975  -0.000425   0.392660
    28  C    0.204319  -0.064803   0.005642   0.002298  -0.005845  -0.085971
    29  H   -0.050866   0.009417  -0.000434  -0.000585   0.000537  -0.004924
    30  H   -0.049174  -0.001575   0.000348  -0.000190   0.001125   0.008814
    31  H   -0.054787  -0.007861  -0.000104   0.000354   0.000080  -0.003987
             25         26         27         28         29         30
     1  C    0.000000   0.000008   0.000000   0.000000   0.000000   0.000000
     2  C    0.000000   0.000000   0.000000   0.000000   0.000000   0.000000
     3  C    0.000000   0.000000   0.000000   0.000000   0.000000   0.000000
     4  C    0.000000  -0.000004   0.000000   0.000000   0.000000   0.000000
     5  C   -0.000002   0.000173  -0.000004  -0.000001   0.000000   0.000000
     6  C    0.000001  -0.000248  -0.000009   0.000011  -0.000002   0.000000
     7  H    0.000000   0.000001   0.000000   0.000000   0.000000   0.000000
     8  H    0.000000   0.000000   0.000000   0.000000   0.000000   0.000000
     9  H    0.000000   0.000000   0.000000   0.000000   0.000000   0.000000
    10  H    0.000000  -0.000002   0.000000   0.000000   0.000000   0.000000
    11  H    0.000001   0.000607   0.000000  -0.000001   0.000000   0.000000
    12  C   -0.000047   0.000626   0.000014  -0.001190  -0.000113  -0.000212
    13  O   -0.000001   0.000001   0.000001   0.000036  -0.000008   0.000061
    14  H    0.000000  -0.000005   0.000000  -0.000002   0.000000  -0.000001
    15  C   -0.000488  -0.008405   0.000398   0.008384  -0.000216   0.002009
    16  H    0.000107   0.000126   0.000126  -0.000052  -0.000002  -0.000087
    17  C    0.007861   0.002644   0.001343  -0.074447  -0.005649  -0.006734
    18  O   -0.000228   0.000412  -0.000200   0.006314   0.001166   0.011956
    19  C   -0.046969  -0.061804  -0.055916   0.204319  -0.050866  -0.049174
    20  C   -0.012302   0.004840   0.007940  -0.064803   0.009417  -0.001575
    21  H    0.000500  -0.000467  -0.000525   0.005642  -0.000434   0.000348
    22  H   -0.000500   0.000922   0.000975   0.002298  -0.000585  -0.000190
    23  H    0.000889  -0.000478  -0.000425  -0.005845   0.000537   0.001125
    24  C    0.380294   0.394818   0.392660  -0.085971  -0.004924   0.008814
    25  H    0.558745  -0.024465  -0.026442   0.002141  -0.000086  -0.000527
    26  H   -0.024465   0.504399  -0.020551   0.006265   0.000236  -0.000399
    27  H   -0.026442  -0.020551   0.526133  -0.003513   0.002583   0.000328
    28  C    0.002141   0.006265  -0.003513   5.285920   0.394968   0.392009
    29  H   -0.000086   0.000236   0.002583   0.394968   0.543312  -0.022286
    30  H   -0.000527  -0.000399   0.000328   0.392009  -0.022286   0.492154
    31  H    0.000955  -0.000060  -0.000532   0.396060  -0.031825  -0.030257
             31
     1  C    0.000000
     2  C    0.000000
     3  C    0.000000
     4  C    0.000000
     5  C    0.000000
     6  C    0.000000
     7  H    0.000000
     8  H    0.000000
     9  H    0.000000
    10  H    0.000000
    11  H    0.000000
    12  C    0.000050
    13  O   -0.000001
    14  H    0.000000
    15  C   -0.000491
    16  H    0.000017
    17  C    0.012027
    18  O   -0.000089
    19  C   -0.054787
    20  C   -0.007861
    21  H   -0.000104
    22  H    0.000354
    23  H    0.000080
    24  C   -0.003987
    25  H    0.000955
    26  H   -0.000060
    27  H   -0.000532
    28  C    0.396060
    29  H   -0.031825
    30  H   -0.030257
    31  H    0.562270
 Mulliken atomic charges:
              1
     1  C   -0.134396
     2  C   -0.195881
     3  C   -0.125226
     4  C   -0.189601
     5  C   -0.122392
     6  C   -0.037816
     7  H    0.167866
     8  H    0.176695
     9  H    0.178342
    10  H    0.177925
    11  H    0.218263
    12  C    0.366625
    13  O   -0.656748
    14  H    0.390092
    15  C   -0.365446
    16  H    0.223364
    17  C    0.466963
    18  O   -0.501335
    19  C   -0.203930
    20  C   -0.483431
    21  H    0.178688
    22  H    0.170902
    23  H    0.190720
    24  C   -0.484281
    25  H    0.160562
    26  H    0.200808
    27  H    0.175615
    28  C   -0.468543
    29  H    0.164779
    30  H    0.202637
    31  H    0.158179
 Sum of Mulliken atomic charges =   0.00000
 Mulliken charges with hydrogens summed into heavy atoms:
              1
     1  C    0.033470
     2  C   -0.019186
     3  C    0.053116
     4  C   -0.011675
     5  C    0.095870
     6  C   -0.037816
    12  C    0.366625
    13  O   -0.266656
    15  C   -0.142082
    17  C    0.466963
    18  O   -0.501335
    19  C   -0.203930
    20  C    0.056880
    24  C    0.052704
    28  C    0.057053
 Sum of Mulliken charges with hydrogens summed into heavy atoms =   0.00000
 APT atomic charges:
              1
     1  C   -0.026079
     2  C   -0.053519
     3  C    0.000888
     4  C   -0.028286
     5  C   -0.069142
     6  C   -0.113582
     7  H    0.037935
     8  H    0.025725
     9  H    0.029904
    10  H    0.029702
    11  H    0.076349
    12  C    0.930835
    13  O   -0.574789
    14  H    0.300585
    15  C   -0.818594
    16  H    0.131326
    17  C    0.871771
    18  O   -0.762710
    19  C    0.011613
    20  C    0.065790
    21  H   -0.014448
    22  H   -0.026287
    23  H   -0.020876
    24  C    0.039815
    25  H   -0.046637
    26  H    0.009288
    27  H   -0.023867
    28  C    0.066157
    29  H   -0.023989
    30  H    0.019613
    31  H   -0.044491
 Sum of APT charges=   0.00000
 APT Atomic charges with hydrogens summed into heavy atoms:
              1
     1  C    0.011856
     2  C   -0.027793
     3  C    0.030792
     4  C    0.001416
     5  C    0.007207
     6  C   -0.113582
     7  H    0.000000
     8  H    0.000000
     9  H    0.000000
    10  H    0.000000
    11  H    0.000000
    12  C    0.930835
    13  O   -0.274204
    14  H    0.000000
    15  C   -0.687268
    16  H    0.000000
    17  C    0.871771
    18  O   -0.762710
    19  C    0.011613
    20  C    0.004179
    21  H    0.000000
    22  H    0.000000
    23  H    0.000000
    24  C   -0.021401
    25  H    0.000000
    26  H    0.000000
    27  H    0.000000
    28  C    0.017290
    29  H    0.000000
    30  H    0.000000
    31  H    0.000000
 Sum of APT charges=   0.00000
 Electronic spatial extent (au):  <R**2>=           4459.1363
 Charge=              0.0000 electrons
 Dipole moment (field-independent basis, Debye):
    X=              4.7379    Y=              2.4333    Z=              0.9656  Tot=              5.4130
 Quadrupole moment (field-independent basis, Debye-Ang):
   XX=            -77.5534   YY=            -91.2436   ZZ=            -95.7279
   XY=             -8.9425   XZ=             -1.1680   YZ=              0.9076
 Traceless Quadrupole moment (field-independent basis, Debye-Ang):
   XX=             10.6216   YY=             -3.0687   ZZ=             -7.5530
   XY=             -8.9425   XZ=             -1.1680   YZ=              0.9076
 Octapole moment (field-independent basis, Debye-Ang**2):
  XXX=             57.3258  YYY=             -9.5627  ZZZ=             -0.0224  XYY=             38.7681
  XXY=              5.3598  XXZ=              1.3128  XZZ=            -18.8130  YZZ=             -6.4757
  YYZ=              2.6577  XYZ=             -0.4851
 Hexadecapole moment (field-independent basis, Debye-Ang**3):
 XXXX=          -4618.0037 YYYY=           -797.4286 ZZZZ=           -285.3662 XXXY=             11.1364
 XXXZ=            -24.1485 YYYX=            -25.9180 YYYZ=              3.4707 ZZZX=              7.3997
 ZZZY=             -0.0002 XXYY=           -933.0182 XXZZ=           -963.3079 YYZZ=           -196.4074
 XXYZ=             -2.3870 YYXZ=             -6.3957 ZZXY=             -2.2261
 N-N= 9.491490877252D+02 E-N=-3.420304094549D+03  KE= 6.512014665860D+02
  Exact polarizability: 205.938  -4.949 142.564   1.607   0.196  81.069
 Approx polarizability: 152.589  -4.352 147.835   1.128  -0.606  78.383
 Calling FoFJK, ICntrl=    100127 FMM=F ISym2X=0 I1Cent= 0 IOpClX= 0 NMat=1 NMatS=1 NMatT=0.
 Full mass-weighted force constant matrix:
 Low frequencies --- -392.8346 -344.1324 -163.9348 -130.3151  -76.7671  -18.9268
 Low frequencies ---   -0.0006   -0.0004    0.0006
 ******    4 imaginary frequencies (negative Signs) ****** 
 Diagonal vibrational polarizability:
       31.9077072      33.2820003      28.0783145
 Diagonal vibrational hyperpolarizability:
      210.5041076     -15.5412228      32.8964569
 Harmonic frequencies (cm**-1), IR intensities (KM/Mole), Raman scattering
 activities (A**4/AMU), depolarization ratios for plane and unpolarized
 incident light, reduced masses (AMU), force constants (mDyne/A),
 and normal coordinates:
                     1                      2                      3
                     A                      A                      A
 Frequencies --  -392.7255              -344.0888              -160.7751
 Red. masses --     1.0142                 1.0194                 4.9825
 Frc consts  --     0.0922                 0.0711                 0.0759
 IR Inten    --     0.0764                 0.0925                 6.9163
 Raman Activ --     0.0504                 0.1618                 0.6522
 Depolar (P) --     0.4638                 0.4748                 0.5981
 Depolar (U) --     0.6337                 0.6439                 0.7485
  Atom  AN      X      Y      Z        X      Y      Z        X      Y      Z
     1   6     0.00   0.00   0.00     0.00   0.00   0.00    -0.01   0.00  -0.01
     2   6     0.00   0.00   0.00     0.00   0.00   0.00    -0.01  -0.01  -0.05
     3   6     0.00   0.00   0.00     0.00   0.00   0.00     0.00  -0.01  -0.05
     4   6     0.00   0.00   0.00     0.00   0.00   0.00     0.00  -0.01  -0.02
     5   6     0.00   0.00   0.00     0.00   0.00   0.00     0.00   0.00   0.04
     6   6     0.00   0.00   0.00     0.00   0.00   0.00     0.00   0.00   0.06
     7   1     0.00   0.00   0.00     0.00   0.00   0.00    -0.01   0.00  -0.05
     8   1     0.00   0.00   0.00     0.00   0.00   0.00    -0.01  -0.01  -0.09
     9   1     0.00   0.00   0.00     0.00   0.00   0.00     0.00  -0.01  -0.07
    10   1     0.00   0.00   0.00     0.00   0.00   0.00     0.00  -0.01  -0.03
    11   1     0.00   0.00   0.00     0.00   0.00   0.00     0.00   0.00   0.06
    12   6     0.00   0.00   0.00     0.00   0.00   0.00    -0.01   0.00   0.10
    13   8     0.00   0.00   0.00     0.00   0.00   0.00    -0.01   0.00   0.33
    14   1     0.00   0.00   0.00     0.00   0.00   0.00     0.00   0.00   0.58
    15   6     0.00   0.00   0.00     0.00   0.00   0.00    -0.01   0.01  -0.10
    16   1     0.00   0.00   0.00     0.00  -0.01   0.00    -0.05   0.14  -0.19
    17   6     0.00   0.00   0.00     0.00   0.00  -0.01     0.01   0.01  -0.15
    18   8     0.00   0.00   0.00     0.00   0.00  -0.01     0.03   0.02  -0.31
    19   6     0.00   0.00   0.00     0.00   0.00   0.00     0.00   0.00  -0.01
    20   6     0.00   0.00   0.00     0.01   0.01   0.00     0.12  -0.07   0.03
    21   1    -0.24  -0.51  -0.04     0.07   0.14   0.01     0.18  -0.10  -0.05
    22   1     0.52   0.04   0.20    -0.09   0.01  -0.06     0.13  -0.08   0.10
    23   1    -0.28   0.46  -0.14     0.08  -0.08   0.05     0.13  -0.08   0.09
    24   6    -0.02   0.00   0.00     0.00  -0.01   0.02    -0.06   0.03   0.04
    25   1    -0.12  -0.03  -0.08    -0.44  -0.10  -0.32    -0.05  -0.01   0.10
    26   1    -0.04   0.05   0.11    -0.09   0.21   0.53    -0.06   0.05   0.00
    27   1     0.10  -0.04  -0.04     0.52  -0.15  -0.13    -0.11   0.07   0.05
    28   6     0.01  -0.01   0.00    -0.01   0.01   0.00    -0.06   0.03   0.04
    29   1     0.03  -0.05   0.01    -0.02   0.01   0.00    -0.20   0.18  -0.01
    30   1    -0.02   0.00   0.03    -0.01   0.01   0.00     0.06  -0.02  -0.07
    31   1     0.01   0.01  -0.03    -0.01   0.01   0.01    -0.09  -0.06   0.23
                     4                      5                      6
                     A                      A                      A
 Frequencies --   -92.9474                38.2992               110.9714
 Red. masses --     2.9455                 2.2638                 2.7502
 Frc consts  --     0.0150                 0.0020                 0.0200
 IR Inten    --     0.2667                 0.3111                 0.1319
 Raman Activ --     1.3032                 3.7646                 1.0113
 Depolar (P) --     0.7499                 0.7262                 0.7500
 Depolar (U) --     0.8571                 0.8414                 0.8571
  Atom  AN      X      Y      Z        X      Y      Z        X      Y      Z
     1   6     0.00   0.01  -0.03     0.00   0.00   0.13    -0.02  -0.01  -0.09
     2   6     0.00   0.01   0.01     0.00  -0.01   0.17     0.00  -0.07  -0.08
     3   6     0.00   0.01   0.08     0.01  -0.01   0.05     0.06  -0.08   0.01
     4   6    -0.01   0.01   0.11     0.01  -0.01  -0.08     0.11  -0.04   0.09
     5   6    -0.01   0.01   0.07     0.01   0.00  -0.12     0.09   0.02   0.09
     6   6     0.00   0.00  -0.01     0.00   0.00  -0.02     0.02   0.04   0.00
     7   1     0.00   0.01  -0.07     0.00   0.00   0.23    -0.05   0.00  -0.16
     8   1     0.00   0.01  -0.01     0.00  -0.01   0.26    -0.03  -0.10  -0.13
     9   1     0.00   0.01   0.10     0.01  -0.02   0.07     0.08  -0.12   0.01
    10   1    -0.01   0.01   0.15     0.01  -0.01  -0.15     0.15  -0.05   0.14
    11   1    -0.01   0.01   0.09     0.01   0.00  -0.21     0.12   0.06   0.15
    12   6     0.00   0.00  -0.05     0.00   0.01  -0.06     0.00   0.08  -0.01
    13   8     0.00   0.00  -0.09     0.00   0.01  -0.09     0.01   0.08   0.01
    14   1     0.00   0.00  -0.12     0.00   0.01  -0.16     0.01   0.08   0.07
    15   6    -0.01  -0.01  -0.03     0.00   0.02  -0.06     0.00   0.08  -0.05
    16   1    -0.03  -0.03  -0.01     0.01   0.00  -0.05    -0.01   0.13  -0.08
    17   6    -0.01  -0.02  -0.04     0.00   0.01  -0.04     0.00   0.05   0.01
    18   8    -0.01  -0.02  -0.08     0.00   0.01  -0.01     0.02   0.04   0.10
    19   6     0.00  -0.01   0.01    -0.01   0.00   0.00    -0.05  -0.02  -0.02
    20   6     0.16   0.15   0.05     0.08  -0.05   0.04    -0.05  -0.02  -0.02
    21   1     0.23   0.20   0.01     0.12  -0.09  -0.02    -0.05  -0.01  -0.02
    22   1     0.23   0.18  -0.03     0.11  -0.06   0.10    -0.07  -0.02  -0.03
    23   1     0.16   0.19   0.22     0.08  -0.05   0.08    -0.04  -0.04  -0.02
    24   6    -0.02  -0.07  -0.15    -0.05   0.02   0.04    -0.15  -0.01  -0.05
    25   1     0.02  -0.01  -0.20    -0.06  -0.01   0.08    -0.19  -0.04  -0.06
    26   1    -0.01  -0.07  -0.25    -0.06   0.04   0.03    -0.16   0.05  -0.06
    27   1    -0.09  -0.19  -0.14    -0.08   0.06   0.05    -0.16  -0.05  -0.05
    28   6    -0.10  -0.06   0.18    -0.05   0.00   0.04     0.00  -0.13   0.00
    29   1    -0.15  -0.27   0.17    -0.28   0.36  -0.04    -0.17   0.17  -0.06
    30   1    -0.19   0.01   0.36     0.27  -0.12  -0.19     0.35  -0.23  -0.17
    31   1    -0.04   0.05   0.13    -0.15  -0.24   0.40    -0.14  -0.42   0.26
                     7                      8                      9
                     A                      A                      A
 Frequencies --   131.9378               175.1371               220.7450
 Red. masses --     1.7071                 3.7609                 3.8430
 Frc consts  --     0.0175                 0.0680                 0.1103
 IR Inten    --     0.3544                 4.6507                 6.2634
 Raman Activ --     0.6935                 4.2460                 0.9445
 Depolar (P) --     0.6286                 0.6456                 0.7498
 Depolar (U) --     0.7720                 0.7846                 0.8570
  Atom  AN      X      Y      Z        X      Y      Z        X      Y      Z
     1   6     0.01   0.00  -0.04    -0.02   0.00   0.12    -0.03   0.05   0.08
     2   6     0.00   0.04  -0.06    -0.01  -0.04  -0.03    -0.01  -0.02  -0.03
     3   6    -0.04   0.05  -0.02     0.02  -0.04  -0.16     0.05  -0.03  -0.10
     4   6    -0.07   0.02   0.04     0.04  -0.02  -0.10     0.09   0.01  -0.01
     5   6    -0.05  -0.01   0.05     0.03   0.02   0.04     0.07   0.08   0.11
     6   6    -0.01  -0.02   0.01     0.00   0.03   0.12     0.00   0.09   0.10
     7   1     0.03   0.00  -0.07    -0.04   0.01   0.23    -0.06   0.06   0.12
     8   1     0.01   0.06  -0.09    -0.03  -0.05  -0.05    -0.05  -0.05  -0.06
     9   1    -0.05   0.08  -0.03     0.02  -0.07  -0.26     0.06  -0.08  -0.19
    10   1    -0.09   0.03   0.06     0.07  -0.02  -0.15     0.14   0.00  -0.03
    11   1    -0.07  -0.03   0.08     0.04   0.03   0.06     0.10   0.12   0.17
    12   6     0.00  -0.05   0.02     0.00   0.06   0.13     0.00   0.07   0.02
    13   8     0.00  -0.05   0.01     0.01   0.07  -0.08     0.01   0.07  -0.02
    14   1     0.00  -0.05   0.01     0.00   0.06  -0.34    -0.01   0.05  -0.06
    15   6     0.00  -0.05   0.03    -0.03   0.04   0.29    -0.07  -0.04  -0.10
    16   1     0.01  -0.05   0.03    -0.12  -0.26   0.53    -0.17   0.13  -0.22
    17   6     0.00  -0.03   0.01    -0.01  -0.01   0.02    -0.05  -0.12  -0.05
    18   8    -0.01  -0.03   0.06     0.02   0.00  -0.17    -0.07  -0.13   0.14
    19   6     0.03   0.02  -0.03    -0.02  -0.03  -0.02     0.00  -0.05  -0.06
    20   6     0.05   0.06  -0.03    -0.03   0.02  -0.02     0.11  -0.11  -0.02
    21   1     0.02   0.02  -0.03    -0.05   0.03   0.00     0.16  -0.16  -0.10
    22   1     0.12   0.07  -0.04    -0.01   0.04  -0.06     0.16  -0.12   0.05
    23   1     0.01   0.12  -0.02    -0.05   0.05  -0.02     0.11  -0.10   0.03
    24   6     0.10   0.00  -0.04     0.01  -0.05  -0.05     0.06  -0.04   0.00
    25   1     0.12   0.04  -0.06     0.02  -0.01  -0.09     0.08  -0.05   0.03
    26   1     0.11  -0.04  -0.02     0.02  -0.08  -0.04     0.06  -0.06   0.00
    27   1     0.13   0.01  -0.05     0.03  -0.07  -0.06     0.07   0.01   0.00
    28   6     0.00   0.04  -0.02    -0.02  -0.05   0.00    -0.14   0.15  -0.06
    29   1    -0.27   0.49  -0.11    -0.10   0.07  -0.03    -0.16   0.08  -0.06
    30   1     0.35  -0.11  -0.32     0.10  -0.09  -0.08    -0.39   0.18  -0.05
    31   1    -0.13  -0.24   0.40    -0.07  -0.15   0.12    -0.02   0.37  -0.04
                    10                     11                     12
                     A                      A                      A
 Frequencies --   239.7574               257.8958               297.8084
 Red. masses --     3.9508                 4.2464                 3.4006
 Frc consts  --     0.1338                 0.1664                 0.1777
 IR Inten    --     0.8971                 4.8948                 4.4218
 Raman Activ --     5.4948                 1.0467                 1.1653
 Depolar (P) --     0.3765                 0.4309                 0.1364
 Depolar (U) --     0.5470                 0.6023                 0.2401
  Atom  AN      X      Y      Z        X      Y      Z        X      Y      Z
     1   6     0.02   0.04  -0.13     0.15  -0.01   0.11     0.11  -0.03  -0.07
     2   6     0.03  -0.01   0.04     0.15   0.07  -0.01     0.10   0.04  -0.02
     3   6     0.08  -0.01   0.15     0.09   0.08  -0.11     0.05   0.06   0.06
     4   6     0.11   0.01   0.01     0.04   0.02  -0.01     0.00   0.00   0.00
     5   6     0.08   0.05  -0.15     0.06  -0.05   0.11     0.02  -0.07  -0.07
     6   6     0.03   0.06  -0.15     0.09  -0.07   0.10     0.06  -0.07  -0.05
     7   1    -0.01   0.04  -0.19     0.20  -0.02   0.15     0.15  -0.04  -0.10
     8   1     0.01  -0.03   0.09     0.17   0.10  -0.03     0.13   0.07  -0.02
     9   1     0.10  -0.04   0.29     0.08   0.12  -0.21     0.04   0.10   0.13
    10   1     0.14   0.01   0.04    -0.02   0.03  -0.04    -0.05   0.01   0.02
    11   1     0.10   0.08  -0.20     0.05  -0.07   0.15    -0.02  -0.10  -0.10
    12   6     0.02   0.05  -0.02     0.03  -0.09  -0.02     0.02  -0.04   0.07
    13   8     0.02   0.05   0.09     0.01  -0.11  -0.06    -0.02  -0.03   0.04
    14   1     0.01   0.03   0.09     0.02  -0.10   0.01    -0.03  -0.05  -0.06
    15   6    -0.05  -0.03   0.07     0.04  -0.07  -0.13     0.03   0.02   0.18
    16   1    -0.09  -0.05   0.09     0.11   0.08  -0.25     0.01  -0.23   0.37
    17   6    -0.05  -0.10   0.04    -0.03   0.01  -0.02    -0.02   0.04   0.01
    18   8    -0.03  -0.10  -0.08    -0.02   0.02  -0.04    -0.03   0.04   0.08
    19   6    -0.05  -0.05   0.05    -0.09   0.03   0.04    -0.05   0.02  -0.10
    20   6    -0.16   0.05   0.00    -0.23   0.09  -0.01     0.09  -0.09  -0.04
    21   1    -0.26   0.04   0.10    -0.32   0.12   0.10     0.18  -0.13  -0.16
    22   1    -0.12   0.08  -0.08    -0.25   0.11  -0.08     0.09  -0.12   0.07
    23   1    -0.22   0.13  -0.06    -0.25   0.12  -0.09     0.13  -0.14   0.03
    24   6     0.11  -0.08   0.02    -0.08   0.02   0.02    -0.17   0.04  -0.08
    25   1     0.18   0.00  -0.03    -0.07   0.04   0.00    -0.22  -0.03  -0.04
    26   1     0.13  -0.19   0.04    -0.08   0.02   0.01    -0.18   0.11  -0.09
    27   1     0.16  -0.09   0.01    -0.08   0.00   0.02    -0.21   0.05  -0.06
    28   6    -0.13   0.07   0.04    -0.13   0.04   0.07    -0.14   0.08  -0.05
    29   1    -0.25   0.22   0.00    -0.21   0.06   0.04    -0.18   0.01  -0.07
    30   1    -0.11   0.02  -0.09    -0.11   0.03   0.06    -0.29   0.12  -0.02
    31   1    -0.11   0.07   0.22    -0.12   0.03   0.16    -0.06   0.23  -0.04
                    13                     14                     15
                     A                      A                      A
 Frequencies --   360.6865               405.0764               433.1830
 Red. masses --     4.1906                 3.1403                 4.5520
 Frc consts  --     0.3212                 0.3036                 0.5033
 IR Inten    --     1.0833                13.2959                35.3579
 Raman Activ --     1.6966                 0.1399                 1.2280
 Depolar (P) --     0.5793                 0.5293                 0.4500
 Depolar (U) --     0.7336                 0.6922                 0.6207
  Atom  AN      X      Y      Z        X      Y      Z        X      Y      Z
     1   6    -0.07  -0.05   0.01     0.06  -0.03   0.01     0.11  -0.13   0.04
     2   6    -0.09  -0.05  -0.01     0.05   0.03  -0.01     0.08   0.00  -0.02
     3   6    -0.11  -0.05   0.00     0.02   0.04  -0.01    -0.06   0.04  -0.03
     4   6    -0.10  -0.03   0.02    -0.01   0.00   0.01    -0.12  -0.04   0.05
     5   6    -0.08  -0.03   0.01     0.01  -0.05   0.01    -0.06  -0.16   0.01
     6   6    -0.03  -0.02   0.01     0.03  -0.05   0.00     0.06  -0.14  -0.02
     7   1    -0.06  -0.05   0.01     0.07  -0.04   0.02     0.18  -0.15   0.09
     8   1    -0.07  -0.04  -0.02     0.08   0.05  -0.01     0.16   0.08  -0.03
     9   1    -0.12  -0.05  -0.02     0.01   0.07  -0.02    -0.08   0.13  -0.06
    10   1    -0.08  -0.04   0.02    -0.05   0.01   0.02    -0.20  -0.02   0.09
    11   1    -0.10  -0.05  -0.01    -0.01  -0.07   0.01    -0.14  -0.25   0.00
    12   6     0.04   0.02  -0.02    -0.02   0.04  -0.01     0.04   0.13  -0.05
    13   8     0.18   0.03  -0.01    -0.15   0.09   0.01     0.01   0.27   0.04
    14   1     0.23   0.11   0.05    -0.20   0.00  -0.03    -0.05   0.18  -0.14
    15   6     0.08   0.10  -0.03     0.01   0.08  -0.03    -0.01   0.13  -0.10
    16   1     0.12  -0.07   0.09     0.00  -0.02   0.05    -0.17  -0.14   0.13
    17   6     0.09   0.06  -0.01    -0.01   0.06  -0.03     0.00  -0.07  -0.01
    18   8     0.24   0.06   0.05    -0.11   0.07   0.01    -0.02  -0.08  -0.01
    19   6     0.02  -0.02  -0.02     0.03   0.03  -0.04    -0.02  -0.07   0.07
    20   6    -0.11  -0.09  -0.06    -0.02  -0.16  -0.06     0.00   0.09   0.08
    21   1    -0.19  -0.12   0.00    -0.05  -0.24  -0.08     0.01   0.15   0.11
    22   1    -0.16  -0.10  -0.04    -0.10  -0.19   0.06     0.07   0.12  -0.04
    23   1    -0.11  -0.10  -0.19     0.00  -0.22  -0.19    -0.03   0.15   0.17
    24   6     0.05  -0.04  -0.05     0.20  -0.01  -0.02    -0.03  -0.08   0.04
    25   1     0.05  -0.01  -0.08     0.24   0.07  -0.08    -0.01  -0.07   0.04
    26   1     0.05  -0.06  -0.05     0.22  -0.13   0.07    -0.03  -0.09  -0.02
    27   1     0.06  -0.08  -0.05     0.32   0.00  -0.05    -0.08  -0.10   0.05
    28   6    -0.16   0.10   0.09    -0.03  -0.09   0.13     0.03   0.04  -0.09
    29   1    -0.37   0.04   0.03    -0.18  -0.28   0.08     0.17   0.22  -0.05
    30   1    -0.30   0.13   0.14     0.08  -0.03   0.34    -0.04  -0.02  -0.29
    31   1    -0.05   0.28   0.27    -0.05  -0.14   0.19     0.04   0.06  -0.14
                    16                     17                     18
                     A                      A                      A
 Frequencies --   452.3246               486.6012               497.1215
 Red. masses --     2.4561                 2.8101                 3.0219
 Frc consts  --     0.2961                 0.3920                 0.4400
 IR Inten    --     6.6639                 7.3548                 8.9461
 Raman Activ --     1.3870                 0.7278                 2.3760
 Depolar (P) --     0.2263                 0.7496                 0.2221
 Depolar (U) --     0.3690                 0.8569                 0.3635
  Atom  AN      X      Y      Z        X      Y      Z        X      Y      Z
     1   6     0.00   0.01   0.00    -0.01   0.02   0.19     0.00   0.03   0.07
     2   6     0.00   0.01   0.02    -0.02  -0.01  -0.18     0.01   0.01  -0.02
     3   6     0.01   0.01  -0.01     0.00  -0.01  -0.02     0.04   0.00  -0.04
     4   6     0.01   0.01  -0.02     0.02   0.01   0.21     0.03   0.00   0.07
     5   6     0.01   0.01   0.02     0.00   0.03  -0.17     0.02   0.01  -0.02
     6   6     0.00   0.00   0.00     0.00   0.02  -0.04    -0.02   0.01  -0.04
     7   1    -0.01   0.01  -0.02    -0.02   0.03   0.47     0.01   0.02   0.13
     8   1     0.00   0.01   0.04    -0.03  -0.02  -0.34    -0.01  -0.01  -0.05
     9   1     0.01   0.00  -0.02     0.00  -0.02  -0.04     0.04  -0.01  -0.09
    10   1     0.01   0.01  -0.03     0.04   0.01   0.43     0.03   0.00   0.14
    11   1     0.02   0.02   0.04     0.00   0.03  -0.35     0.04   0.03  -0.05
    12   6    -0.02   0.00  -0.01     0.02  -0.02  -0.02    -0.06  -0.03  -0.07
    13   8    -0.08  -0.03  -0.02     0.00  -0.01   0.05    -0.02  -0.08   0.01
    14   1    -0.08  -0.03   0.09    -0.04  -0.06  -0.36     0.04  -0.01   0.21
    15   6     0.02   0.01   0.00     0.01  -0.03  -0.01     0.01   0.08  -0.02
    16   1     0.09   0.20  -0.15     0.01  -0.02  -0.02     0.15  -0.16   0.16
    17   6     0.01   0.05   0.07     0.02  -0.01   0.00    -0.06   0.10   0.01
    18   8    -0.01   0.06  -0.03    -0.03  -0.02  -0.01     0.07   0.12   0.02
    19   6     0.03  -0.01   0.12     0.04   0.02   0.01    -0.16  -0.06   0.00
    20   6    -0.02  -0.10   0.11    -0.02  -0.02  -0.01     0.05   0.03   0.08
    21   1    -0.04  -0.13   0.11    -0.05  -0.03   0.02     0.18   0.05  -0.05
    22   1    -0.07  -0.11   0.16    -0.05  -0.03   0.01     0.17   0.06   0.04
    23   1    -0.01  -0.15   0.03    -0.01  -0.04  -0.08     0.04   0.08   0.31
    24   6    -0.01  -0.14  -0.16    -0.03   0.02  -0.03     0.09  -0.11   0.06
    25   1    -0.05  -0.02  -0.35    -0.07   0.00  -0.05     0.26   0.03   0.05
    26   1    -0.02  -0.06  -0.28    -0.04   0.08  -0.06     0.14  -0.37   0.14
    27   1    -0.04  -0.46  -0.16    -0.05  -0.04  -0.03     0.20  -0.01   0.04
    28   6     0.08   0.12  -0.02     0.03   0.03   0.03    -0.11  -0.07  -0.14
    29   1     0.15   0.34   0.01     0.00   0.03   0.02     0.06  -0.02  -0.09
    30   1    -0.01   0.06  -0.25     0.04   0.03   0.03    -0.14  -0.10  -0.22
    31   1     0.11   0.18   0.02     0.04   0.03   0.06    -0.13  -0.09  -0.27
                    19                     20                     21
                     A                      A                      A
 Frequencies --   521.5563               575.2953               592.0317
 Red. masses --     3.1523                 1.3211                 2.7015
 Frc consts  --     0.5052                 0.2576                 0.5579
 IR Inten    --    38.3444               176.6835                20.8342
 Raman Activ --     2.4268                 4.1590                 5.1128
 Depolar (P) --     0.1364                 0.2914                 0.1978
 Depolar (U) --     0.2401                 0.4513                 0.3303
  Atom  AN      X      Y      Z        X      Y      Z        X      Y      Z
     1   6     0.01  -0.02  -0.01     0.00   0.01   0.03     0.01   0.01  -0.03
     2   6     0.01   0.01  -0.16     0.00   0.00  -0.04     0.01  -0.01  -0.01
     3   6     0.00   0.01   0.18     0.01   0.00   0.03     0.00  -0.01   0.04
     4   6    -0.02  -0.01  -0.07     0.01   0.00  -0.01     0.00  -0.02  -0.04
     5   6     0.00  -0.04  -0.13     0.00   0.02  -0.03    -0.01   0.00   0.02
     6   6     0.01  -0.03   0.23     0.00   0.01   0.07     0.00   0.01   0.04
     7   1     0.03  -0.03  -0.11     0.00   0.01  -0.07     0.04   0.00  -0.03
     8   1     0.02   0.02  -0.35    -0.01  -0.01  -0.12     0.01  -0.02  -0.02
     9   1     0.00   0.03   0.35     0.01  -0.01   0.03     0.00   0.00   0.08
    10   1    -0.04  -0.01  -0.16     0.02   0.00  -0.04     0.00  -0.02  -0.08
    11   1    -0.01  -0.04  -0.32    -0.01   0.01  -0.11    -0.02  -0.01   0.02
    12   6    -0.02   0.03   0.19    -0.01  -0.01  -0.04     0.00  -0.02   0.00
    13   8     0.00   0.02  -0.10     0.00  -0.01  -0.05     0.20  -0.01   0.05
    14   1     0.03   0.07   0.08     0.03   0.02   0.72     0.21   0.04  -0.45
    15   6    -0.02  -0.01  -0.03     0.00   0.05  -0.04    -0.06  -0.02  -0.07
    16   1    -0.05   0.47  -0.39    -0.04  -0.50   0.40    -0.10  -0.32   0.17
    17   6    -0.01   0.02  -0.01     0.00  -0.02  -0.04    -0.10   0.01  -0.05
    18   8     0.03   0.03   0.00    -0.03  -0.03   0.02    -0.07   0.00   0.01
    19   6    -0.04  -0.02   0.00     0.02   0.01   0.01    -0.10   0.12   0.04
    20   6     0.00   0.01   0.02    -0.01   0.00   0.00    -0.03  -0.06   0.12
    21   1     0.03   0.02   0.00    -0.04   0.00   0.03     0.06  -0.14  -0.03
    22   1     0.03   0.02   0.00    -0.03  -0.01   0.00    -0.05  -0.09   0.28
    23   1     0.00   0.03   0.07    -0.01  -0.01  -0.04     0.02  -0.14   0.11
    24   6     0.03  -0.03   0.02    -0.01   0.01  -0.01     0.05   0.08  -0.09
    25   1     0.07   0.00   0.01    -0.03   0.00  -0.02     0.09   0.22  -0.23
    26   1     0.04  -0.07   0.03    -0.01   0.03  -0.03     0.07  -0.05  -0.07
    27   1     0.07  -0.01   0.01    -0.04  -0.03  -0.01     0.14  -0.07  -0.13
    28   6    -0.03  -0.02  -0.03     0.04   0.02   0.03     0.02  -0.01   0.00
    29   1     0.01  -0.02  -0.01     0.03   0.03   0.03     0.17  -0.04   0.05
    30   1    -0.03  -0.03  -0.04     0.04   0.02   0.02     0.18  -0.01   0.04
    31   1    -0.03  -0.03  -0.06     0.03   0.02   0.03    -0.10  -0.19  -0.18
                    22                     23                     24
                     A                      A                      A
 Frequencies --   600.6598               645.8254               699.6212
 Red. masses --     2.0073                 5.2110                 6.5311
 Frc consts  --     0.4267                 1.2806                 1.8835
 IR Inten    --   109.3791                10.8218                 0.3234
 Raman Activ --     2.2597                 0.7126                 6.3606
 Depolar (P) --     0.6888                 0.6885                 0.6546
 Depolar (U) --     0.8158                 0.8155                 0.7912
  Atom  AN      X      Y      Z        X      Y      Z        X      Y      Z
     1   6     0.03  -0.02   0.04     0.00  -0.07   0.01    -0.15  -0.28   0.01
     2   6     0.03   0.01   0.03    -0.03  -0.10   0.02    -0.31   0.14   0.00
     3   6     0.02   0.01  -0.07    -0.18  -0.06  -0.02    -0.06   0.14   0.01
     4   6    -0.01  -0.03   0.07    -0.07   0.09   0.02     0.17   0.31  -0.01
     5   6     0.00  -0.06  -0.03    -0.04   0.12  -0.01     0.28  -0.13   0.00
     6   6    -0.02  -0.03  -0.09     0.15   0.06  -0.01     0.05  -0.14   0.01
     7   1     0.08  -0.03   0.05    -0.13  -0.04  -0.04    -0.01  -0.31   0.00
     8   1     0.03   0.01   0.06     0.03  -0.02   0.01    -0.21   0.25  -0.02
     9   1     0.01   0.04  -0.14    -0.18  -0.08  -0.06     0.05  -0.20   0.00
    10   1    -0.05  -0.02   0.16     0.07   0.06   0.03     0.04   0.34  -0.01
    11   1     0.00  -0.05   0.00    -0.10   0.05  -0.03     0.18  -0.24  -0.01
    12   6    -0.05   0.06   0.01     0.26   0.00   0.00     0.02   0.01  -0.02
    13   8     0.07   0.02  -0.07     0.08   0.05  -0.04    -0.02  -0.01   0.01
    14   1     0.19   0.19   0.68    -0.02  -0.11   0.52    -0.03  -0.04   0.00
    15   6    -0.11  -0.05   0.09     0.24  -0.10   0.06     0.02   0.00   0.00
    16   1    -0.08   0.39  -0.26     0.34   0.20  -0.19     0.02  -0.04   0.04
    17   6    -0.05  -0.02   0.06     0.03   0.03   0.06     0.00  -0.04   0.00
    18   8     0.03  -0.02  -0.02    -0.25   0.04  -0.03     0.04  -0.05   0.00
    19   6    -0.03   0.05  -0.01    -0.06   0.01  -0.01    -0.03   0.03   0.00
    20   6     0.01  -0.03   0.01     0.00   0.00   0.03    -0.01  -0.01   0.04
    21   1     0.05  -0.07  -0.06     0.07  -0.01  -0.04     0.02  -0.03  -0.01
    22   1     0.00  -0.05   0.10     0.03  -0.01   0.06    -0.02  -0.02   0.09
    23   1     0.03  -0.07   0.01     0.01  -0.01   0.11     0.00  -0.03   0.05
    24   6     0.02   0.07  -0.04    -0.01  -0.02   0.00     0.01   0.06  -0.03
    25   1     0.01   0.09  -0.07     0.05   0.04  -0.02     0.01   0.08  -0.06
    26   1     0.02   0.07  -0.02     0.01  -0.11   0.04     0.01   0.03  -0.01
    27   1     0.06   0.04  -0.05     0.05   0.00  -0.01     0.03   0.03  -0.04
    28   6     0.00   0.00   0.01    -0.08  -0.06  -0.06    -0.02   0.00  -0.01
    29   1     0.02  -0.06   0.01    -0.05  -0.05  -0.05     0.02  -0.03   0.00
    30   1     0.08   0.01   0.07    -0.07  -0.06  -0.07     0.03   0.00   0.01
    31   1    -0.04  -0.08  -0.04    -0.09  -0.07  -0.09    -0.05  -0.06  -0.07
                    25                     26                     27
                     A                      A                      A
 Frequencies --   721.4241               745.8743               785.5069
 Red. masses --     5.2422                 5.0659                 5.7238
 Frc consts  --     1.6075                 1.6605                 2.0808
 IR Inten    --     5.8908                10.8797                17.0474
 Raman Activ --    13.0706                 3.8004                 3.4185
 Depolar (P) --     0.0747                 0.5655                 0.6456
 Depolar (U) --     0.1390                 0.7224                 0.7847
  Atom  AN      X      Y      Z        X      Y      Z        X      Y      Z
     1   6     0.05   0.00   0.01     0.01  -0.02  -0.15    -0.13   0.20  -0.05
     2   6     0.07  -0.08  -0.01     0.00  -0.02   0.17    -0.12   0.18   0.06
     3   6    -0.07  -0.05   0.01    -0.04  -0.01  -0.18     0.21   0.06  -0.06
     4   6    -0.04   0.02  -0.01     0.01   0.05   0.16     0.01  -0.20   0.06
     5   6    -0.05   0.11   0.01     0.00   0.04  -0.14    -0.01  -0.17  -0.05
     6   6     0.08   0.05   0.01     0.03   0.01  -0.03    -0.18  -0.05   0.07
     7   1    -0.10   0.03   0.00    -0.02  -0.02  -0.12    -0.02   0.17  -0.16
     8   1     0.11  -0.04  -0.03     0.03   0.00   0.39    -0.30  -0.01   0.09
     9   1    -0.09   0.00   0.01    -0.03  -0.03  -0.29     0.21   0.05  -0.14
    10   1     0.07   0.00  -0.03     0.06   0.04   0.38    -0.20  -0.16   0.08
    11   1    -0.08   0.08   0.00    -0.03   0.01  -0.13     0.11  -0.04  -0.15
    12   6     0.06   0.01  -0.01     0.01  -0.03   0.38     0.09  -0.10   0.04
    13   8    -0.24   0.01  -0.01    -0.01  -0.05  -0.08     0.00   0.14  -0.02
    14   1    -0.35  -0.18  -0.01    -0.01  -0.05  -0.03    -0.14  -0.07   0.05
    15   6     0.07   0.00   0.00     0.00   0.08  -0.10     0.23  -0.03  -0.02
    16   1     0.00  -0.02   0.02    -0.36  -0.14   0.11     0.37  -0.05  -0.01
    17   6     0.05  -0.12   0.00     0.01   0.01  -0.22     0.11  -0.04   0.04
    18   8     0.25  -0.16   0.01     0.00   0.00   0.06    -0.04  -0.06  -0.02
    19   6    -0.10   0.10   0.01     0.00   0.00   0.02    -0.01   0.02   0.00
    20   6    -0.06  -0.02   0.15    -0.03   0.01   0.05    -0.03   0.00   0.08
    21   1     0.05  -0.08   0.00    -0.06   0.03   0.09     0.00  -0.01   0.04
    22   1    -0.06  -0.04   0.30    -0.05   0.03  -0.01    -0.03  -0.01   0.11
    23   1    -0.01  -0.09   0.19    -0.05   0.03   0.02    -0.02  -0.02   0.09
    24   6     0.02   0.20  -0.11     0.01  -0.04   0.01     0.00   0.08  -0.04
    25   1     0.03   0.28  -0.18     0.03   0.00  -0.02     0.00   0.10  -0.06
    26   1     0.04   0.11  -0.05     0.01  -0.05  -0.01     0.01   0.05  -0.02
    27   1     0.11   0.11  -0.13     0.00  -0.08   0.01     0.03   0.06  -0.05
    28   6    -0.08  -0.02  -0.05     0.03   0.02   0.02    -0.08  -0.05  -0.06
    29   1     0.05  -0.10  -0.01     0.09   0.03   0.04    -0.07  -0.06  -0.06
    30   1     0.07  -0.02   0.02     0.05   0.01   0.00    -0.08  -0.05  -0.05
    31   1    -0.19  -0.20  -0.22     0.01  -0.01  -0.03    -0.09  -0.06  -0.08
                    28                     29                     30
                     A                      A                      A
 Frequencies --   825.7493               869.7382               894.9115
 Red. masses --     3.2585                 7.5687                 3.2616
 Frc consts  --     1.3091                 3.3732                 1.5390
 IR Inten    --    41.2840                25.8378                28.7423
 Raman Activ --     6.0048                 8.2493                12.1820
[...]
 0.00040787,-0.00000575,0.00122339,0.00269416,-0.00140575,0.00006043,0.
 00026706,0.00003078,0.04771878,-0.12893392,-0.13483306,-0.05929374,0.1
 3205396,0.14877899,-0.00003895,-0.00001327,0.00001430,-0.00000651,-0.0
 0008920,0.00000557,-0.00007125,0.00003546,0.00000131,0.00003254,-0.000
 01778,-0.00001950,-0.00010479,0.00011345,0.00001070,0.00030524,-0.0000
 6761,-0.00018015,0.00002176,-0.00002417,0.00000056,-0.00001716,0.00001
 256,-0.00000156,-0.00000995,-0.00000639,0.00000142,-0.00001651,-0.0000
 1043,0.00000077,-0.00004949,-0.00004626,-0.00002240,0.00035416,-0.0004
 0409,-0.00032903,0.00028103,0.00131521,0.00057417,0.00009036,-0.000048
 30,0.00010338,-0.00210089,0.00477455,-0.00374317,-0.00058644,0.0017145
 4,0.00036989,-0.00046643,0.00252941,-0.00026505,0.00022919,-0.00068804
 ,-0.00014637,-0.01631599,0.00112973,-0.00338806,-0.00018876,-0.0005382
 8,0.00059133,-0.00007030,-0.00023041,0.00036872,-0.00013969,-0.0001765
 5,0.00009535,-0.00012036,-0.00003163,0.00022930,-0.35122462,0.02493817
 ,-0.02922497,-0.00860416,0.00009758,-0.00180766,0.38588467,0.00000236,
 -0.00011825,0.00002923,-0.00008001,-0.00013948,-0.00001078,-0.00010248
 ,0.00006295,0.00000166,0.00004599,0.00008332,-0.00004162,-0.00019567,0
 .00008516,0.00002712,0.00001423,0.00004927,0.00006363,0.00002375,-0.00
 003238,0.00000081,-0.00003118,0.00001968,-0.00000225,-0.00002727,0.000
 00113,0.00000723,-0.00005211,-0.00002685,-0.00000329,0.00003163,0.0000
 9894,0.00002136,0.00053731,-0.00178422,-0.00014557,0.00042885,0.001118
 47,0.00006779,-0.00000230,-0.00006810,0.00005815,0.00191925,-0.0015703
 7,0.00105974,0.00072054,-0.00205493,0.00132621,-0.00318288,-0.00238259
 ,0.00022386,0.00081416,0.00120807,0.00039999,-0.03337806,0.00123325,-0
 .00425076,-0.00016893,-0.00099965,-0.00033609,-0.00010215,0.00011722,0
 .00042623,0.00042453,0.00019972,0.00025492,-0.00004934,0.00001615,0.00
 012106,0.03283353,-0.05694732,0.00262176,0.03186538,-0.00163895,0.0045
 4958,-0.03230839,0.06927842,-0.00001409,0.00002348,-0.00000226,0.00002
 158,0.00000613,-0.00000008,0.00000956,-0.00002106,0.00000473,-0.000004
 45,-0.00001387,-0.00002979,0.00003455,0.00002826,-0.00004791,0.0000439
 2,-0.00003392,-0.00000213,0.00000279,-0.00000158,0.00000653,0.00000359
 ,-0.00000089,0.00000221,0.00000296,-0.00000183,0.00000365,0.00000446,0
 .00000419,0.00001270,-0.00005100,-0.00001101,0.00012784,-0.00014206,-0
 .00020297,-0.00011368,0.00009234,-0.00004170,0.00004141,0.00000630,-0.
 00004351,0.00004566,-0.00051945,0.00208327,-0.00104791,-0.00093357,0.0
 0148328,-0.00063116,-0.00008010,-0.00014536,0.00138494,-0.00008095,-0.
 00043968,-0.00009923,0.01499529,-0.00098710,0.00250616,-0.00091266,0.0
 0059880,-0.00046807,0.00016043,0.00026406,-0.00025621,-0.00018603,-0.0
 0005948,0.00002687,-0.00001625,-0.00011356,0.00001747,-0.03001746,0.00
 158179,-0.06288437,0.02237116,-0.00080027,0.00298566,0.03439649,-0.008
 11598,0.05959529,-0.00001979,-0.00000702,0.00001281,-0.00001433,-0.000
 01342,-0.00000007,-0.00002636,0.00001006,0.00000209,0.00000548,0.00002
 633,0.00000932,-0.00002692,-0.00003579,0.00001584,0.00005543,0.0000214
 8,-0.00000704,0.00000520,-0.00000369,-0.00000448,-0.00000665,0.0000043
 0,-0.00000280,-0.00000687,0.00000226,-0.00000236,-0.00000816,-0.000006
 74,-0.00001073,0.00005103,-0.00000116,-0.00004469,0.00016266,0.0001593
 2,-0.00000458,0.00001468,0.00032740,0.00012400,0.00001699,0.00001841,-
 0.00000184,-0.00042125,0.00014665,-0.00023029,0.00000093,-0.00005843,0
 .00061966,-0.00089574,-0.00001640,0.00015776,0.00016632,-0.00015777,-0
 .00019652,0.00264593,-0.00431527,0.01778393,-0.00162316,-0.00235076,0.
 00212432,-0.00020050,-0.00021678,0.00054087,-0.00023650,-0.00056028,-0
 .00021695,-0.00023392,-0.00015851,0.00054268,-0.07232473,0.01049911,-0
 .07289674,0.00388436,-0.00203335,0.01343594,-0.00599805,0.00304058,-0.
 03954281,0.07496971,0.00001434,0.00000190,-0.00000519,-0.00000015,-0.0
 0000391,-0.00000038,0.00000250,-0.00000047,0.00000048,0.00000204,0.000
 00371,-0.00000087,0.00000895,-0.00000173,0.00000171,-0.00001870,-0.000
 02419,-0.00001569,-0.00000119,0.00000074,0.00000323,0.00000111,0.00000
 034,0.00000132,-0.00000077,0.00000031,0.00000010,0.00000042,-0.0000002
 1,-0.00000001,0.00000073,-0.00000209,0.00000169,0.00003816,-0.00012359
 ,0.00008362,0.00003544,-0.00000981,-0.00002310,0.00001164,-0.00000569,
 0.00001076,0.00002899,0.00005656,-0.00013340,-0.00007907,-0.00002048,-
 0.00007807,-0.00119067,-0.00011566,0.00087349,0.00018247,-0.00100311,-
 0.00056637,0.00455338,-0.00541577,0.03106050,-0.00139719,-0.00358763,0
 .00059079,-0.00016806,0.00023592,0.00054397,-0.00010707,0.00059593,-0.
 00002009,-0.00018693,0.00025026,0.00091024,0.00911022,-0.05883345,0.02
 516690,-0.00933701,0.00480281,-0.03089218,0.00060430,-0.00038194,0.004
 15136,-0.00261898,0.06258677,-0.00002080,-0.00002720,0.00001348,-0.000
 02467,-0.00002979,0.00000255,-0.00002563,0.00001739,0.00000200,0.00000
 727,0.00002422,0.00000566,-0.00004355,0.00000547,0.00001701,-0.0000048
 1,0.00004415,-0.00000715,0.00000974,-0.00001161,-0.00000757,-0.0000103
 1,0.00000773,-0.00000412,-0.00001043,0.00000106,-0.00000238,-0.0000106
 1,-0.00000914,-0.00000954,0.00002509,0.00000951,-0.00003142,0.00016387
 ,-0.00031751,-0.00013450,0.00003039,0.00031016,0.00009958,-0.00001663,
 -0.00000853,-0.00001647,-0.00044688,0.00062427,-0.00008280,0.00013210,
 -0.00023417,0.00018767,0.00107094,-0.00037582,-0.00072083,-0.00005438,
 0.00090181,0.00032449,-0.00344214,-0.00028095,-0.01340646,0.00075801,0
 .00171125,-0.00076368,0.00018565,0.00027745,-0.00054262,-0.00004682,0.
 00081482,0.00056666,0.00042654,0.00040742,-0.00046027,-0.06745984,0.02
 890936,-0.33683155,-0.00549892,0.00325293,-0.01713164,0.00064605,-0.00
 016956,-0.00114470,0.07571133,-0.03289434,0.36693353,-0.00010577,-0.00
 004721,0.00000187,-0.00001830,0.00000874,-0.00000732,-0.00002139,0.000
 01034,0.00000162,0.00001028,0.00001406,-0.00000426,-0.00001122,0.00000
 501,-0.00000038,-0.00000478,0.00030235,-0.00002896,0.00000877,-0.00000
 081,0.00000354,-0.00001560,0.00000586,-0.00000071,-0.00000795,0.000000
 49,0.00000178,-0.00001059,-0.00000672,-0.00000077,0.00001989,0.0000136
 5,0.00000236,-0.00075067,-0.00050601,0.00006403,0.00014568,0.00014889,
 0.00007974,0.00001815,-0.00003958,-0.00003689,-0.00028141,0.00269435,0
 .00061799,0.00026551,-0.00010818,0.00001115,-0.03094019,0.00343559,-0.
 01911334,-0.00368929,-0.00381398,0.00031248,-0.14677226,-0.01777529,-0
 .04594341,0.00722277,0.00130748,0.00566923,-0.00049459,0.00030763,0.00
 260587,-0.00013306,0.00075554,0.00162172,0.00102112,0.00062669,0.00280
 360,-0.01936351,-0.01028695,-0.00809242,0.00016186,0.00009542,0.000187
 51,-0.00067994,-0.00191876,0.00005437,0.00009842,0.00054331,-0.0023085
 2,0.57707289,0.00018640,0.00010256,0.00000225,0.00004806,0.00000155,-0
 .00000762,0.00003517,-0.00003549,0.00000300,-0.00002332,-0.00000887,0.
 00000086,0.00008925,-0.00008260,-0.00000842,0.00011298,-0.00057144,0.0
 0009045,-0.00001796,0.00002300,0.00000602,0.00003101,-0.00001024,0.000
 00065,0.00001526,0.00000092,-0.00000185,0.00002809,0.00001297,0.000003
 86,-0.00001959,-0.00006011,0.00001627,0.00100614,0.00107308,-0.0001296
 5,0.00000376,-0.00028186,0.00004527,0.00010201,0.00002918,-0.00001317,
 0.00197074,-0.00389327,-0.00245930,-0.00052740,-0.00014852,0.00034982,
 0.02674190,0.01002630,0.01955407,0.00022529,-0.00110482,0.00006553,-0.
 01560851,-0.10282383,-0.01068400,-0.00527059,-0.00120840,-0.00572340,0
 .00012858,-0.00030654,-0.00059348,-0.00019870,-0.00019413,-0.00018043,
 -0.00070274,0.00192020,0.00024250,-0.03316017,-0.01162158,-0.01445159,
 -0.00014226,-0.00112068,-0.00053251,-0.00269940,-0.00522251,0.00061272
 ,-0.00152982,0.00146966,-0.00296623,-0.03072841,0.67324378,0.00007939,
 0.00003370,-0.00001235,0.00003063,0.00001855,-0.00000868,0.00003540,-0
 .00001704,-0.00000268,-0.00000068,-0.00003311,0.00000552,0.00002623,0.
 00001521,-0.00001389,0.00003074,-0.00019162,0.00006279,-0.00001772,0.0
 0000892,0.00001100,0.00001780,-0.00001223,0.00000446,0.00001366,-0.000
 00153,0.00000134,0.00000804,0.00001141,0.00000372,-0.00003805,-0.00000
 798,-0.00000085,0.00019567,0.00080549,0.00023575,-0.00007492,-0.000486
 79,-0.00021433,0.00007371,0.00001395,0.00002713,0.00146599,-0.00139265
 ,-0.00038203,-0.00000593,0.00022015,-0.00020862,-0.00414771,0.00344686
 ,-0.00071144,0.00044134,-0.00211064,0.00064438,-0.04339658,-0.01497605
 ,-0.12119144,-0.02522987,-0.01018220,-0.03390672,0.00026492,-0.0015811
 1,-0.00416914,0.00007917,-0.00059473,-0.00277043,-0.00457731,-0.000767
 73,0.00032830,0.00982105,0.00242987,0.00635519,0.00025901,0.00092785,-
 0.00049524,0.00212860,0.00261703,-0.00079695,0.00168123,0.00221714,0.0
 0088942,-0.08503614,-0.02653287,0.62617119,0.00001112,0.00001210,-0.00
 000212,0.00000966,0.00001578,-0.00000037,0.00001049,-0.00000685,-0.000
 00131,-0.00000374,-0.00001241,0.00000395,0.00001069,-0.00000376,-0.000
 00179,0.00000879,-0.00002417,0.00000561,-0.00000600,0.00000742,0.00000
 075,0.00000596,-0.00000476,0.00000071,0.00000615,-0.00000020,-0.000000
 12,0.00000446,0.00000449,0.00000030,-0.00001041,-0.00000638,-0.0000051
 6,-0.00007136,0.00019250,-0.00001231,-0.00000157,-0.00011429,-0.000018
 16,0.00002822,0.00001047,-0.00000314,0.00015462,-0.00027902,0.00012010
 ,0.00004344,0.00001390,0.00000754,0.00095243,-0.00040370,-0.00063732,0
 .00021650,0.00002826,0.00001231,0.00623058,-0.00522852,-0.03068688,-0.
 00420646,-0.00149153,-0.00327418,0.00042119,-0.00029119,-0.00102475,0.
 00021166,-0.00006963,-0.00085810,0.00020681,0.00009306,-0.00011654,0.0
 0134974,0.00093647,-0.00116410,-0.00000307,0.00014670,0.00005921,0.000
 13861,0.00024978,-0.00006148,0.00004337,-0.00032399,0.00013780,-0.0870
 8880,0.01144519,0.09520570,0.09350976,0.00000034,-0.00000569,-0.000000
 25,-0.00000710,-0.00001145,-0.00000150,-0.00000423,0.00000674,0.000000
 90,0.00000656,-0.00000085,-0.00000092,-0.00002103,0.00001781,0.0000024
 4,0.00000252,0.00000603,0.00000665,0.00000083,-0.00000877,0.00000290,-
 0.00000105,0.00000064,0.00000034,-0.00000224,-0.00000014,-0.00000006,-
 0.00000514,-0.00000238,-0.00000107,-0.00000138,0.00000659,-0.00000473,
 0.00009038,0.00003960,-0.00000337,-0.00003015,-0.00006947,-0.00004762,
 0.00000017,0.00000869,0.00002402,-0.00002529,-0.00010159,0.00009089,-0
 .00000937,0.00003941,-0.00007664,0.00040288,0.00038631,0.00128068,0.00
 004383,-0.00020747,-0.00080866,0.00211054,-0.00155514,-0.00826718,-0.0
 0156428,0.00121430,-0.00145415,-0.00011917,-0.00024606,-0.00056726,0.0
 0022962,-0.00002985,0.00008878,-0.00017343,-0.00006020,0.00003485,0.00
 057894,0.00003108,-0.00166423,-0.00006388,0.00012399,0.00014456,0.0001
 1350,0.00012282,0.00023602,-0.00063238,-0.00080926,0.00014405,0.010195
 02,-0.06038181,-0.02643963,-0.00917163,0.05804626,-0.00001408,-0.00001
 044,0.00001047,-0.00000558,0.00000549,0.00000414,-0.00000185,0.0000030
 5,0.00000191,-0.00000209,0.00000093,0.00000725,-0.00000343,-0.00000193
 ,0.00000730,-0.00001910,0.00005238,0.00002751,0.00000167,0.00000389,-0
 .00001138,-0.00000258,0.00000067,-0.00000446,-0.00000022,0.00000034,-0
 .00000340,0.00000025,-0.00000035,-0.00000559,0.00000437,0.00000272,-0.
 00001856,-0.00010549,-0.00017654,-0.00015789,0.00000002,0.00009911,0.0
 0009009,-0.00001046,-0.00000009,-0.00005150,-0.00028512,0.00029447,0.0
 0005616,0.00009293,-0.00000135,-0.00000288,0.00035777,-0.00198926,-0.0
 0016398,0.00015811,0.00126566,0.00109375,0.00829768,-0.00192067,-0.021
 70311,-0.00324433,-0.00040878,-0.00184107,-0.00009378,-0.00030226,-0.0
 0109174,-0.00022455,-0.00040274,-0.00071384,-0.00073702,-0.00003859,0.
 00069876,0.00069286,0.00196150,0.00019312,0.00028383,0.00023043,0.0004
 4405,0.00002552,-0.00004145,0.00042136,0.00016665,-0.00068311,0.001769
 33,0.08942904,-0.02873119,-0.32284921,-0.09735204,0.03297704,0.3533898
 9,0.00001550,0.00001982,-0.00000461,0.00002710,0.00003622,-0.00000107,
 0.00002249,-0.00002411,0.00000034,-0.00002021,-0.00000397,0.00000179,0
 .00006823,-0.00003959,-0.00000422,0.00001331,-0.00003530,0.00002123,-0
 .00000743,0.00002132,0.00000163,0.00000671,-0.00000466,0.00000069,0.00
 000772,0.00000055,-0.00000083,0.00001311,0.00000742,0.00000205,-0.0000
 0268,-0.00002122,0.00000603,-0.00012373,0.00015858,-0.00000856,0.00013
 708,-0.00001611,0.00002731,0.00007621,-0.00001517,0.00000274,0.0003411
 0,0.00027871,-0.00013143,0.00017148,-0.00013263,0.00021108,-0.00107768
 ,-0.00354925,0.00073436,0.00203665,0.00217975,0.00019789,-0.01358856,-
 0.02799377,0.00935650,0.00014678,0.00129151,0.00128010,-0.00000893,-0.
 00002382,-0.00028218,0.00014037,0.00013767,0.00029150,0.00076727,0.000
 35665,-0.00006285,-0.00457553,-0.00085185,-0.00340555,-0.00036153,-0.0
 0062901,-0.00021956,-0.00083830,-0.00149413,0.00018778,0.00007870,0.00
 048932,-0.00053405,-0.10245615,-0.10034999,0.03835428,-0.00460373,-0.0
 0998572,0.00293420,0.11127483,-0.00001589,-0.00001663,0.00000120,-0.00
 000785,-0.00000893,0.00000079,-0.00000902,0.00000347,0.00000024,-0.000
 00024,0.00001636,-0.00000334,-0.00000341,-0.00000511,-0.00000123,-0.00
 000630,0.00003832,-0.00001078,0.00000685,-0.00000077,-0.00000050,-0.00
 000583,0.00000533,0.00000057,-0.00000590,0.00000060,0.00000058,-0.0000
 0170,-0.00000380,0.00000087,0.00001134,0.00000328,0.00000610,-0.000024
 23,-0.00027338,0.00001664,0.00005963,0.00012892,-0.00001022,0.00001206
 ,-0.00001195,0.00002641,-0.00016022,0.00040890,-0.00006148,0.00000418,
 -0.00008727,0.00008872,0.00014241,-0.00171175,-0.00023996,0.00370839,-
 0.00002453,0.00084252,-0.00397298,-0.00715930,0.00395537,-0.00034109,0
 .00087859,0.00041014,0.00013621,-0.00001930,-0.00013852,0.00044547,0.0
 0015431,0.00018918,0.00066492,-0.00027617,-0.00078421,-0.00141333,0.00
 088927,-0.00086445,0.00013276,-0.00008580,-0.00002520,-0.00022650,-0.0
 0053788,-0.00000151,0.00024578,0.00023134,-0.00026127,-0.10626362,-0.2
 8187698,0.08270380,0.00313145,0.00580126,-0.00278193,0.11551744,0.3055
 0428,0.00000726,0.00000854,-0.00000229,0.00000281,0.00000129,-0.000000
 88,0.00000088,-0.00000347,-0.00000056,-0.00000271,-0.00000184,-0.00000
 013,-0.00000093,-0.00000340,-0.00000217,0.00001582,-0.00003019,-0.0000
 2319,-0.00000204,-0.00000014,0.00000409,0.00000270,-0.00000107,0.00000
 119,0.00000111,0.00000015,0.00000069,0.00000042,0.00000033,0.00000037,
 -0.00000067,-0.00000615,0.00000222,0.00005986,0.00010150,-0.00000769,0
 .00002818,-0.00002948,-0.00000397,0.00002894,0.00000647,0.00001695,-0.
 00000071,-0.00019066,0.00017679,0.00002795,-0.00005305,0.00003386,0.00
 045039,0.00049495,0.00090567,-0.00089099,0.00015092,-0.00121700,-0.010
 71723,-0.02117484,0.00518969,-0.00063133,-0.00067587,0.00198318,0.0000
 0369,0.00010451,0.00007525,0.00010171,0.00024132,0.00020000,0.00055789
 ,-0.00011504,-0.00005585,-0.00381529,-0.00002939,-0.00238897,0.0001201
 3,-0.00006943,0.00021820,-0.00053718,-0.00095622,0.00057834,-0.0000329
 4,-0.00004311,0.00056426,0.04240923,0.08478002,-0.09007086,0.01410803,
 0.03229317,-0.00985490,-0.03989756,-0.09155687,0.09335728,-0.00007014,
 -0.00005441,0.00000664,-0.00003442,-0.00003236,0.00000094,-0.00003059,
 0.00002604,0.00000072,0.00001744,0.00002672,-0.00000845,-0.00005812,0.
 00003500,0.00000523,-0.00005091,0.00021036,-0.00003404,0.00001637,-0.0
 0001992,0.00000041,-0.00001913,0.00001130,-0.00000036,-0.00001605,0.00
 000042,0.00000175,-0.00001855,-0.00001305,-0.00000132,0.00002493,0.000
 02950,0.00000112,-0.00028056,-0.00068757,-0.00001396,0.00003366,0.0002
 2333,-0.00000909,-0.00005659,-0.00001842,0.00001220,-0.00075475,0.0014
 9519,0.00055045,0.00008019,-0.00000343,-0.00011239,-0.00293327,-0.0041
 3380,-0.00340011,0.00082787,0.00022722,0.00032759,-0.02301979,0.024197
 48,-0.00046705,0.00093950,-0.00071850,0.00240294,0.00040957,0.00007434
 ,0.00039977,-0.00006407,-0.00015648,-0.00045757,0.00114144,0.00001710,
 -0.00027011,0.00193951,0.00053615,0.00003074,-0.00036014,-0.00061471,-
 0.00025865,0.00031095,0.00014182,0.00017477,-0.00015628,-0.00019754,0.
 00065423,-0.19319986,0.14880902,0.01231236,-0.00757911,0.00804234,-0.0
 0034315,0.01231982,-0.01176075,-0.00139743,0.21064109,-0.00000186,0.00
 000761,-0.00000195,0.00001699,0.00003719,-0.00000028,0.00001969,-0.000
 01365,-0.00000021,-0.00000888,-0.00001956,0.00000514,0.00003435,-0.000
 00717,0.00000216,0.00000043,0.00002692,0.00002076,-0.00000787,0.000015
 59,-0.00000172,0.00000640,-0.00000735,-0.00000032,0.00001001,-0.000000
 22,-0.00000142,0.00000741,0.00000776,-0.00000021,-0.00001183,-0.000008
 58,-0.00000662,-0.00024207,0.00021170,0.00000249,0.00005244,-0.0001440
 8,-0.00000602,0.00003736,0.00000047,-0.00002237,0.00003397,0.00033846,
 0.00028950,0.00019050,0.00001166,0.00002714,-0.00324784,-0.00238311,-0
 .00186535,0.00231612,0.00091631,0.00102796,-0.01019559,0.00622743,-0.0
 0283331,-0.00000871,0.00109012,0.00021375,-0.00037590,-0.00005493,0.00
 010758,-0.00004877,-0.00001861,0.00025410,-0.00028289,-0.00010778,0.00
 067611,-0.00004202,0.00102976,0.00010555,0.00013289,0.00031271,0.00000
 265,0.00024824,0.00021086,-0.00003806,0.00021486,0.00010276,0.00012306
 ,0.15102511,-0.21694953,-0.01014202,0.00114449,-0.00236139,0.00059301,
 0.02467537,-0.02196468,-0.00324295,-0.16569238,0.23349334,-0.00004992,
 -0.00002671,0.00000494,-0.00001345,-0.00000050,0.00000045,-0.00001145,
 0.00000866,-0.00000007,0.00000496,0.00000788,-0.00000278,-0.00001379,0
 .00000691,0.00000185,-0.00002441,0.00014538,-0.00000209,0.00000614,-0.
 00000212,-0.00000355,-0.00000899,0.00000387,-0.00000054,-0.00000458,0.
 00000025,0.00000060,-0.00000571,-0.00000373,-0.00000046,0.00001053,0.0
 0000944,-0.00000045,-0.00031491,-0.00036978,-0.00008085,0.00002212,0.0
 0015949,0.00004905,-0.00002330,-0.00001084,-0.00001093,-0.00046043,0.0
 0110298,0.00035905,0.00008836,-0.00002146,0.00000596,-0.00397977,-0.00
 225575,-0.00266968,0.00008516,0.00022552,0.00068921,-0.01758216,0.0170
 9597,-0.00139520,-0.00075409,0.00107082,0.00127509,0.00025469,-0.00004
 149,0.00034940,-0.00002670,-0.00006337,0.00007474,0.00032988,0.0003903
 4,-0.00055994,0.00109680,0.00043863,0.00037258,-0.00007971,-0.00026778
 ,0.00009567,0.00010167,0.00019618,-0.00023639,0.00026641,-0.00026141,-
 0.00007794,0.01469599,-0.01275757,-0.05693533,0.02555786,-0.02799002,0
 .00025843,-0.00905902,0.00849834,0.00032043,-0.01010818,0.01471186,0.0
 5811873||-0.00072094,0.00781159,-0.00037131,-0.00521659,0.01271339,0.0
 0061803,-0.01185494,0.00108277,0.00010681,-0.00250252,-0.00967521,-0.0
 0154455,-0.00024109,-0.01595342,0.00018067,0.03437480,0.01388504,-0.01
 001401,-0.01607749,-0.01574617,-0.00039626,0.01046367,-0.01771233,0.00
 012775,0.02053088,0.00028385,0.00025726,0.01088356,0.01770288,0.000059
 94,-0.01168667,0.01970403,0.00253815,-0.02326599,0.03429537,0.00639344
 ,-0.09404106,-0.01799142,0.00980727,0.01077529,-0.00457090,0.00284136,
 0.06823587,0.06103874,-0.03843837,-0.01790358,-0.03733625,0.01670618,0
 .01045205,0.03599625,0.00776773,0.02569196,-0.08026334,0.00271380,-0.0
 0612951,-0.00160235,0.01045553,-0.00665440,0.00708470,0.00377203,0.000
 79939,0.00183994,-0.01233439,0.00196870,-0.00443343,-0.00736490,0.0058
 8940,0.00207976,-0.00618100,0.00362264,0.00770047,-0.00199200,0.000700
 40,-0.00923451,0.00222473,-0.00437337,-0.00844434,0.00273266,-0.003233
 30,-0.00454927,0.00816584,-0.01203938,0.00341086,-0.00930403,0.0013889
 7,0.00265958,0.00860838,0.00401787,0.00525365,0.00070191,0.00614538,-0
 .00702991,0.00116135|||@


 SUCCESS-- IF YOU HAVE TRIED TO DO SOMETHING AND FAILED
           YOU ARE BETTER OFF THAN IF YOU HAD TRIED TO DO
           NOTHING AND SUCCEEDED.

                   -- FROM THE BACK OF A SUGAR PACKET
 Job cpu time:  0 days  0 hours 13 minutes 20.0 seconds.
 File lengths (MBytes):  RWF=    222 Int=      0 D2E=      0 Chk=      5 Scr=      1
 Normal termination of Gaussian 09 at Thu Nov 28 03:02:12 2024.
