 Entering Link 1 = C:\G09W\l1.exe PID=     14824.
  
 Copyright (c) 1988,1990,1992,1993,1995,1998,2003,2009, Gaussian, Inc.
                  All Rights Reserved.
  
 This is part of the Gaussian(R) 09 program.  It is based on
 the Gaussian(R) 03 system (copyright 2003, Gaussian, Inc.),
 the Gaussian(R) 98 system (copyright 1998, Gaussian, Inc.),
 the Gaussian(R) 94 system (copyright 1995, Gaussian, Inc.),
 the Gaussian 92(TM) system (copyright 1992, Gaussian, Inc.),
 the Gaussian 90(TM) system (copyright 1990, Gaussian, Inc.),
 the Gaussian 88(TM) system (copyright 1988, Gaussian, Inc.),
 the Gaussian 86(TM) system (copyright 1986, Carnegie Mellon
 University), and the Gaussian 82(TM) system (copyright 1983,
 Carnegie Mellon University). Gaussian is a federally registered
 trademark of Gaussian, Inc.
  
 This software contains proprietary and confidential information,
 including trade secrets, belonging to Gaussian, Inc.
  
 This software is provided under written license and may be
 used, copied, transmitted, or stored only in accord with that
 written license.
  
 The following legend is applicable only to US Government
 contracts under FAR:
  
                    RESTRICTED RIGHTS LEGEND
  
 Use, reproduction and disclosure by the US Government is
 subject to restrictions as set forth in subparagraphs (a)
 and (c) of the Commercial Computer Software - Restricted
 Rights clause in FAR 52.227-19.
  
 Gaussian, Inc.
 340 Quinnipiac St., Bldg. 40, Wallingford CT 06492
  
  
 ---------------------------------------------------------------
 Warning -- This program may not be used in any manner that
 competes with the business of Gaussian, Inc. or will provide
 assistance to any competitor of Gaussian, Inc.  The licensee
 of this program is prohibited from giving any competitor of
 Gaussian, Inc. access to this program.  By using this program,
 the user acknowledges that Gaussian, Inc. is engaged in the
 business of creating and licensing software in the field of
 computational chemistry and represents and warrants to the
 licensee that it is not a competitor of Gaussian, Inc. and that
 it will not use this program in any manner prohibited above.
 ---------------------------------------------------------------
  

 Cite this work as:
 Gaussian 09, Revision A.02,
 M. J. Frisch, G. W. Trucks, H. B. Schlegel, G. E. Scuseria, 
 M. A. Robb, J. R. Cheeseman, G. Scalmani, V. Barone, B. Mennucci, 
 G. A. Petersson, H. Nakatsuji, M. Caricato, X. Li, H. P. Hratchian, 
 A. F. Izmaylov, J. Bloino, G. Zheng, J. L. Sonnenberg, M. Hada, 
 M. Ehara, K. Toyota, R. Fukuda, J. Hasegawa, M. Ishida, T. Nakajima, 
 Y. Honda, O. Kitao, H. Nakai, T. Vreven, J. A. Montgomery, Jr., 
 J. E. Peralta, F. Ogliaro, M. Bearpark, J. J. Heyd, E. Brothers, 
 K. N. Kudin, V. N. Staroverov, R. Kobayashi, J. Normand, 
 K. Raghavachari, A. Rendell, J. C. Burant, S. S. Iyengar, J. Tomasi, 
 M. Cossi, N. Rega, J. M. Millam, M. Klene, J. E. Knox, J. B. Cross, 
 V. Bakken, C. Adamo, J. Jaramillo, R. Gomperts, R. E. Stratmann, 
 O. Yazyev, A. J. Austin, R. Cammi, C. Pomelli, J. W. Ochterski, 
 R. L. Martin, K. Morokuma, V. G. Zakrzewski, G. A. Voth, 
 P. Salvador, J. J. Dannenberg, S. Dapprich, A. D. Daniels, 
 O. Farkas, J. B. Foresman, J. V. Ortiz, J. Cioslowski, 
 and D. J. Fox, Gaussian, Inc., Wallingford CT, 2009.
 
 ******************************************
 Gaussian 09:  IA32W-G09RevA.02 11-Jun-2009
                27-Nov-2024 
 ******************************************
 %chk=C:\G09W\Midterm1\E3opt.chk
 ---------------------------------
 # opt hf/6-311g geom=connectivity
 ---------------------------------
 1/18=20,19=15,38=1,57=2/1,3;
 2/9=110,12=2,17=6,18=5,40=1/2;
 3/5=4,6=6,11=9,16=1,25=1,30=1,71=1/1,2,3;
 4//1;
 5/5=2,38=5/2;
 6/7=2,8=2,9=2,10=2,28=1/1;
 7//1,2,3,16;
 1/18=20,19=15/3(2);
 2/9=110/2;
 99//99;
 2/9=110/2;
 3/5=4,6=6,11=9,16=1,25=1,30=1,71=1/1,2,3;
 4/5=5,16=3/1;
 5/5=2,38=5/2;
 7//1,2,3,16;
 1/18=20,19=15/3(-5);
 2/9=110/2;
 6/7=2,8=2,9=2,10=2,19=2,28=1/1;
 99/9=1/99;
 -------------------
 Title Card Required
 -------------------
 Symbolic Z-matrix:
 Charge =  0 Multiplicity = 1
 C                     5.83829  -1.88823   0.00168 
 C                     7.23345  -1.88823   0.00168 
 C                     7.93099  -0.68048   0.00168 
 C                     7.23333   0.52803   0.00048 
 C                     5.83851   0.52795   0. 
 C                     5.14091  -0.68026   0.001 
 H                     5.28853  -2.84055   0.00213 
 H                     7.78296  -2.84074   0.00299 
 H                     9.03067  -0.6804    0.00231 
 H                     7.78353   1.48017   0.00042 
 H                     5.28839   1.48023  -0.00095 
 C                     3.60091  -0.68      0.00074 
 O                     2.88816  -1.91971   0.00121 
 H                     3.51295  -2.64857   0.0017 
 C                     2.91886   0.49106   0.00008 
 H                     3.12203   1.02265   0.90619 
 C                     1.40886   0.2056   -0.10005 
 O                     0.99118  -0.97964  -0.16567 
 C                     0.40658   1.37463  -0.11994 
 C                    -0.08796   1.65122   1.31203 
 H                     0.46076   1.04503   2.0022 
 H                     0.06137   2.68422   1.54764 
 H                    -1.12963   1.41659   1.38117 
 C                     1.09719   2.63349  -0.67665 
 H                     0.76405   3.4929   -0.13321 
 H                     2.15745   2.53436  -0.57218 
 H                     0.8499    2.74788  -1.71138 
 C                    -0.79177   1.0082   -1.01508 
 H                    -0.46074   0.89755  -2.02655 
 H                    -1.22088   0.08797  -0.67754 
 H                    -1.52632   1.7845   -0.96311 
 

 GradGradGradGradGradGradGradGradGradGradGradGradGradGradGradGradGradGrad
 Berny optimization.
 Initialization pass.
                           ----------------------------
                           !    Initial Parameters    !
                           ! (Angstroms and Degrees)  !
 --------------------------                            --------------------------
 ! Name  Definition              Value          Derivative Info.                !
 --------------------------------------------------------------------------------
 ! R1    R(1,2)                  1.3952         estimate D2E/DX2                !
 ! R2    R(1,6)                  1.3948         estimate D2E/DX2                !
 ! R3    R(1,7)                  1.0996         estimate D2E/DX2                !
 ! R4    R(2,3)                  1.3947         estimate D2E/DX2                !
 ! R5    R(2,8)                  1.0997         estimate D2E/DX2                !
 ! R6    R(3,4)                  1.3954         estimate D2E/DX2                !
 ! R7    R(3,9)                  1.0997         estimate D2E/DX2                !
 ! R8    R(4,5)                  1.3948         estimate D2E/DX2                !
 ! R9    R(4,10)                 1.0997         estimate D2E/DX2                !
 ! R10   R(5,6)                  1.3951         estimate D2E/DX2                !
 ! R11   R(5,11)                 1.0998         estimate D2E/DX2                !
 ! R12   R(6,12)                 1.54           estimate D2E/DX2                !
 ! R13   R(12,13)                1.43           estimate D2E/DX2                !
 ! R14   R(12,15)                1.3552         estimate D2E/DX2                !
 ! R15   R(13,14)                0.96           estimate D2E/DX2                !
 ! R16   R(15,16)                1.07           estimate D2E/DX2                !
 ! R17   R(15,17)                1.54           estimate D2E/DX2                !
 ! R18   R(17,18)                1.2584         estimate D2E/DX2                !
 ! R19   R(17,19)                1.54           estimate D2E/DX2                !
 ! R20   R(19,20)                1.54           estimate D2E/DX2                !
 ! R21   R(19,24)                1.54           estimate D2E/DX2                !
 ! R22   R(19,28)                1.54           estimate D2E/DX2                !
 ! R23   R(20,21)                1.07           estimate D2E/DX2                !
 ! R24   R(20,22)                1.07           estimate D2E/DX2                !
 ! R25   R(20,23)                1.07           estimate D2E/DX2                !
 ! R26   R(24,25)                1.07           estimate D2E/DX2                !
 ! R27   R(24,26)                1.07           estimate D2E/DX2                !
 ! R28   R(24,27)                1.07           estimate D2E/DX2                !
 ! R29   R(28,29)                1.07           estimate D2E/DX2                !
 ! R30   R(28,30)                1.07           estimate D2E/DX2                !
 ! R31   R(28,31)                1.07           estimate D2E/DX2                !
 ! A1    A(2,1,6)              119.9985         estimate D2E/DX2                !
 ! A2    A(2,1,7)              119.9972         estimate D2E/DX2                !
 ! A3    A(6,1,7)              120.0043         estimate D2E/DX2                !
 ! A4    A(1,2,3)              120.0086         estimate D2E/DX2                !
 ! A5    A(1,2,8)              119.9808         estimate D2E/DX2                !
 ! A6    A(3,2,8)              120.0106         estimate D2E/DX2                !
 ! A7    A(2,3,4)              119.9942         estimate D2E/DX2                !
 ! A8    A(2,3,9)              120.0128         estimate D2E/DX2                !
 ! A9    A(4,3,9)              119.993          estimate D2E/DX2                !
 ! A10   A(3,4,5)              119.994          estimate D2E/DX2                !
 ! A11   A(3,4,10)             119.9811         estimate D2E/DX2                !
 ! A12   A(5,4,10)             120.0249         estimate D2E/DX2                !
 ! A13   A(4,5,6)              120.0047         estimate D2E/DX2                !
 ! A14   A(4,5,11)             120.0113         estimate D2E/DX2                !
 ! A15   A(6,5,11)             119.984          estimate D2E/DX2                !
 ! A16   A(1,6,5)              120.0            estimate D2E/DX2                !
 ! A17   A(1,6,12)             120.008          estimate D2E/DX2                !
 ! A18   A(5,6,12)             119.992          estimate D2E/DX2                !
 ! A19   A(6,12,13)            119.8865         estimate D2E/DX2                !
 ! A20   A(6,12,15)            120.2269         estimate D2E/DX2                !
 ! A21   A(13,12,15)           119.8865         estimate D2E/DX2                !
 ! A22   A(12,13,14)           109.5            estimate D2E/DX2                !
 ! A23   A(12,15,16)           109.4712         estimate D2E/DX2                !
 ! A24   A(12,15,17)           109.4712         estimate D2E/DX2                !
 ! A25   A(16,15,17)           109.4713         estimate D2E/DX2                !
 ! A26   A(15,17,18)           120.2269         estimate D2E/DX2                !
 ! A27   A(15,17,19)           119.8865         estimate D2E/DX2                !
 ! A28   A(18,17,19)           119.8865         estimate D2E/DX2                !
 ! A29   A(17,19,20)           109.4712         estimate D2E/DX2                !
 ! A30   A(17,19,24)           109.4712         estimate D2E/DX2                !
 ! A31   A(17,19,28)           109.4712         estimate D2E/DX2                !
 ! A32   A(20,19,24)           109.4713         estimate D2E/DX2                !
 ! A33   A(20,19,28)           109.4712         estimate D2E/DX2                !
 ! A34   A(24,19,28)           109.4712         estimate D2E/DX2                !
 ! A35   A(19,20,21)           109.4712         estimate D2E/DX2                !
 ! A36   A(19,20,22)           109.4712         estimate D2E/DX2                !
 ! A37   A(19,20,23)           109.4712         estimate D2E/DX2                !
 ! A38   A(21,20,22)           109.4713         estimate D2E/DX2                !
 ! A39   A(21,20,23)           109.4712         estimate D2E/DX2                !
 ! A40   A(22,20,23)           109.4712         estimate D2E/DX2                !
 ! A41   A(19,24,25)           109.4712         estimate D2E/DX2                !
 ! A42   A(19,24,26)           109.4712         estimate D2E/DX2                !
 ! A43   A(19,24,27)           109.4712         estimate D2E/DX2                !
 ! A44   A(25,24,26)           109.4713         estimate D2E/DX2                !
 ! A45   A(25,24,27)           109.4712         estimate D2E/DX2                !
 ! A46   A(26,24,27)           109.4712         estimate D2E/DX2                !
 ! A47   A(19,28,29)           109.4712         estimate D2E/DX2                !
 ! A48   A(19,28,30)           109.4712         estimate D2E/DX2                !
 ! A49   A(19,28,31)           109.4712         estimate D2E/DX2                !
 ! A50   A(29,28,30)           109.4713         estimate D2E/DX2                !
 ! A51   A(29,28,31)           109.4712         estimate D2E/DX2                !
 ! A52   A(30,28,31)           109.4712         estimate D2E/DX2                !
 ! D1    D(6,1,2,3)              0.0323         estimate D2E/DX2                !
 ! D2    D(6,1,2,8)            179.9532         estimate D2E/DX2                !
 ! D3    D(7,1,2,3)           -179.9729         estimate D2E/DX2                !
 ! D4    D(7,1,2,8)             -0.052          estimate D2E/DX2                !
 ! D5    D(2,1,6,5)              0.0149         estimate D2E/DX2                !
 ! D6    D(2,1,6,12)           179.9892         estimate D2E/DX2                !
 ! D7    D(7,1,6,5)           -179.9798         estimate D2E/DX2                !
 ! D8    D(7,1,6,12)            -0.0056         estimate D2E/DX2                !
 ! D9    D(1,2,3,4)             -0.0568         estimate D2E/DX2                !
 ! D10   D(1,2,3,9)            179.9619         estimate D2E/DX2                !
 ! D11   D(8,2,3,4)           -179.9777         estimate D2E/DX2                !
 ! D12   D(8,2,3,9)              0.041          estimate D2E/DX2                !
 ! D13   D(2,3,4,5)              0.0341         estimate D2E/DX2                !
 ! D14   D(2,3,4,10)          -179.9964         estimate D2E/DX2                !
 ! D15   D(9,3,4,5)           -179.9846         estimate D2E/DX2                !
 ! D16   D(9,3,4,10)            -0.0151         estimate D2E/DX2                !
 ! D17   D(3,4,5,6)              0.0131         estimate D2E/DX2                !
 ! D18   D(3,4,5,11)          -179.9995         estimate D2E/DX2                !
 ! D19   D(10,4,5,6)          -179.9563         estimate D2E/DX2                !
 ! D20   D(10,4,5,11)            0.0311         estimate D2E/DX2                !
 ! D21   D(4,5,6,1)             -0.0376         estimate D2E/DX2                !
 ! D22   D(4,5,6,12)           179.9881         estimate D2E/DX2                !
 ! D23   D(11,5,6,1)           179.975          estimate D2E/DX2                !
 ! D24   D(11,5,6,12)            0.0007         estimate D2E/DX2                !
 ! D25   D(1,6,12,13)            0.0            estimate D2E/DX2                !
 ! D26   D(1,6,12,15)          180.0            estimate D2E/DX2                !
 ! D27   D(5,6,12,13)          179.9743         estimate D2E/DX2                !
 ! D28   D(5,6,12,15)           -0.0257         estimate D2E/DX2                !
 ! D29   D(6,12,13,14)           0.003          estimate D2E/DX2                !
 ! D30   D(15,12,13,14)       -179.997          estimate D2E/DX2                !
 ! D31   D(6,12,15,16)         -63.95           estimate D2E/DX2                !
 ! D32   D(6,12,15,17)         176.05           estimate D2E/DX2                !
 ! D33   D(13,12,15,16)        116.05           estimate D2E/DX2                !
 ! D34   D(13,12,15,17)         -3.95           estimate D2E/DX2                !
 ! D35   D(12,15,17,18)          0.0            estimate D2E/DX2                !
 ! D36   D(12,15,17,19)        180.0            estimate D2E/DX2                !
 ! D37   D(16,15,17,18)       -120.0            estimate D2E/DX2                !
 ! D38   D(16,15,17,19)         60.0            estimate D2E/DX2                !
 ! D39   D(15,17,19,20)        -93.86           estimate D2E/DX2                !
 ! D40   D(15,17,19,24)         26.14           estimate D2E/DX2                !
 ! D41   D(15,17,19,28)        146.14           estimate D2E/DX2                !
 ! D42   D(18,17,19,20)         86.14           estimate D2E/DX2                !
 ! D43   D(18,17,19,24)       -153.86           estimate D2E/DX2                !
 ! D44   D(18,17,19,28)        -33.86           estimate D2E/DX2                !
 ! D45   D(17,19,20,21)          6.4471         estimate D2E/DX2                !
 ! D46   D(17,19,20,22)        126.4471         estimate D2E/DX2                !
 ! D47   D(17,19,20,23)       -113.5529         estimate D2E/DX2                !
 ! D48   D(24,19,20,21)       -113.5529         estimate D2E/DX2                !
 ! D49   D(24,19,20,22)          6.4471         estimate D2E/DX2                !
 ! D50   D(24,19,20,23)        126.4471         estimate D2E/DX2                !
 ! D51   D(28,19,20,21)        126.4471         estimate D2E/DX2                !
 ! D52   D(28,19,20,22)       -113.5529         estimate D2E/DX2                !
 ! D53   D(28,19,20,23)          6.4471         estimate D2E/DX2                !
 ! D54   D(17,19,24,25)       -141.3984         estimate D2E/DX2                !
 ! D55   D(17,19,24,26)        -21.3984         estimate D2E/DX2                !
 ! D56   D(17,19,24,27)         98.6016         estimate D2E/DX2                !
 ! D57   D(20,19,24,25)        -21.3984         estimate D2E/DX2                !
 ! D58   D(20,19,24,26)         98.6016         estimate D2E/DX2                !
 ! D59   D(20,19,24,27)       -141.3984         estimate D2E/DX2                !
 ! D60   D(28,19,24,25)         98.6016         estimate D2E/DX2                !
 ! D61   D(28,19,24,26)       -141.3984         estimate D2E/DX2                !
 ! D62   D(28,19,24,27)        -21.3984         estimate D2E/DX2                !
 ! D63   D(17,19,28,29)        -64.7795         estimate D2E/DX2                !
 ! D64   D(17,19,28,30)         55.2205         estimate D2E/DX2                !
 ! D65   D(17,19,28,31)        175.2205         estimate D2E/DX2                !
 ! D66   D(20,19,28,29)        175.2205         estimate D2E/DX2                !
 ! D67   D(20,19,28,30)        -64.7795         estimate D2E/DX2                !
 ! D68   D(20,19,28,31)         55.2205         estimate D2E/DX2                !
 ! D69   D(24,19,28,29)         55.2205         estimate D2E/DX2                !
 ! D70   D(24,19,28,30)        175.2205         estimate D2E/DX2                !
 ! D71   D(24,19,28,31)        -64.7795         estimate D2E/DX2                !
 --------------------------------------------------------------------------------
 Trust Radius=3.00D-01 FncErr=1.00D-07 GrdErr=1.00D-07
 Number of steps in this run= 164 maximum allowed number of steps= 186.
 GradGradGradGradGradGradGradGradGradGradGradGradGradGradGradGradGradGrad

                          Input orientation:                          
 ---------------------------------------------------------------------
 Center     Atomic      Atomic             Coordinates (Angstroms)
 Number     Number       Type             X           Y           Z
 ---------------------------------------------------------------------
      1          6           0        5.838290   -1.888232    0.001678
      2          6           0        7.233450   -1.888232    0.001678
      3          6           0        7.930988   -0.680481    0.001678
      4          6           0        7.233334    0.528028    0.000479
      5          6           0        5.838509    0.527950    0.000000
      6          6           0        5.140908   -0.680256    0.000996
      7          1           0        5.288531   -2.840549    0.002128
      8          1           0        7.782958   -2.840745    0.002993
      9          1           0        9.030668   -0.680401    0.002312
     10          1           0        7.783534    1.480171    0.000420
     11          1           0        5.288387    1.480231   -0.000953
     12          6           0        3.600909   -0.679999    0.000744
     13          8           0        2.888156   -1.919711    0.001210
     14          1           0        3.512949   -2.648568    0.001703
     15          6           0        2.918860    0.491058    0.000082
     16          1           0        3.122033    1.022653    0.906187
     17          6           0        1.408864    0.205600   -0.100048
     18          8           0        0.991181   -0.979644   -0.165670
     19          6           0        0.406579    1.374629   -0.119940
     20          6           0       -0.087962    1.651223    1.312026
     21          1           0        0.460763    1.045034    2.002196
     22          1           0        0.061370    2.684221    1.547643
     23          1           0       -1.129627    1.416593    1.381174
     24          6           0        1.097186    2.633490   -0.676653
     25          1           0        0.764048    3.492900   -0.133207
     26          1           0        2.157449    2.534356   -0.572177
     27          1           0        0.849900    2.747877   -1.711383
     28          6           0       -0.791774    1.008202   -1.015084
     29          1           0       -0.460742    0.897547   -2.026555
     30          1           0       -1.220878    0.087967   -0.677540
     31          1           0       -1.526323    1.784499   -0.963108
 ---------------------------------------------------------------------
                    Distance matrix (angstroms):
                    1          2          3          4          5
     1  C    0.000000
     2  C    1.395160   0.000000
     3  C    2.416205   1.394712   0.000000
     4  C    2.790065   2.416260   1.395427   0.000000
     5  C    2.416183   2.789946   2.416356   1.394825   0.000000
     6  C    1.394829   2.416183   2.790080   2.416236   1.395138
     7  H    1.099610   2.165553   3.412986   3.889675   3.413102
     8  H    2.165414   1.099655   2.165330   3.413316   3.889601
     9  H    3.413229   2.165375   1.099680   2.165806   3.413209
    10  H    3.889745   3.413024   2.165678   1.099680   2.165606
    11  H    3.413055   3.889707   3.413506   2.165528   1.099761
    12  C    2.542775   3.828209   4.330080   3.828035   2.542833
    13  O    2.950302   4.345408   5.192865   4.987184   3.833488
    14  H    2.446492   3.797399   4.836573   4.892037   3.936814
    15  C    3.766178   4.927141   5.147226   4.314633   2.919882
    16  H    4.082823   5.118119   5.181202   4.238839   2.906054
    17  C    4.900439   6.190338   6.582826   5.834254   4.442485
    18  O    4.934370   6.310266   6.948268   6.423796   5.079063
    19  C    6.337550   7.567511   7.800962   6.880104   5.498829
    20  C    7.026038   8.236979   8.453249   7.522174   6.173023
    21  H    6.443906   7.646922   7.923619   7.081094   5.761625
    22  H    7.527958   8.645003   8.697248   7.647219   6.357676
    23  H    7.834332   9.097579   9.401887   8.522617   7.159068
    24  C    6.586666   7.652440   7.625181   6.522560   5.231759
    25  H    7.397480   8.415934   8.294597   7.117584   5.878676
    26  H    5.782489   6.756803   6.633117   5.487977   4.231224
    27  H    7.022259   8.073277   8.051710   6.971832   5.722162
    28  C    7.306222   8.592285   8.942709   8.103351   6.724708
    29  H    7.179979   8.430592   8.776391   7.965188   6.627525
    30  H    7.361967   8.708752   9.209153   8.492766   7.105462
    31  H    8.285970   9.547428   9.820778   8.901619   7.533077
                    6          7          8          9         10
     6  C    0.000000
     7  H    2.165331   0.000000
     8  H    3.412938   2.494427   0.000000
     9  H    3.889760   4.320860   2.494768   0.000000
    10  H    3.413344   4.989355   4.320917   2.494678   0.000000
    11  H    2.165516   4.320781   4.989362   4.321228   2.495147
    12  C    1.540000   2.741541   4.707267   5.429760   4.707515
    13  O    2.571214   2.570942   4.980702   6.266287   5.960195
    14  H    2.554311   1.785931   4.274332   5.858234   5.940066
    15  C    2.511867   4.088392   5.895793   6.223064   4.964212
    16  H    2.791975   4.520549   6.120933   6.215252   4.770674
    17  C    3.837070   4.933689   7.065403   7.673811   6.501619
    18  O    4.163850   4.685973   7.044174   8.046808   7.225949
    19  C    5.162466   6.451053   8.496792   8.866398   7.378692
    20  C    5.873302   7.127308   9.156567   9.502696   7.981856
    21  H    5.374494   6.511941   8.527053   8.967716   7.603909
    22  H    6.285979   7.761116   9.619466   9.703455   7.967149
    23  H    6.754353   7.824179   9.972888  10.465670   9.019699
    24  C    5.271794   6.927714   8.667682   8.624558   6.818785
    25  H    6.048979   7.784718   9.455089   9.261308   7.303569
    26  H    4.423040   6.246847   7.801851   7.609589   5.752565
    27  H    5.753007   7.339487   9.068577   9.034092   7.253457
    28  C    6.251402   7.267580   9.453936  10.018325   8.648116
    29  H    6.162703   7.151437   9.276448   9.833264   8.509769
    30  H    6.443827   7.170116   9.492605  10.302756   9.136591
    31  H    7.173318   8.292465  10.439777  10.883834   9.364531
                   11         12         13         14         15
    11  H    0.000000
    12  C    2.741201   0.000000
    13  O    4.161817   1.430000   0.000000
    14  H    4.494349   1.970533   0.960000   0.000000
    15  C    2.567708   1.355200   2.410965   3.195340   0.000000
    16  H    2.392775   1.987002   3.087262   3.801154   1.070000
    17  C    4.084753   2.366327   2.591429   3.547366   1.540000
    18  O    4.954200   2.632139   2.123697   3.028636   2.430306
    19  C    4.884400   3.799974   4.126206   5.084334   2.665832
    20  C    5.536992   4.556514   4.829812   5.759489   3.479678
    21  H    5.244803   4.103909   4.322718   5.192351   3.218321
    22  H    5.582961   5.122422   5.619463   6.537734   3.920479
    23  H    6.565458   5.355302   5.401648   6.323131   4.376560
    24  C    4.399175   4.207934   4.939505   5.847753   2.892487
    25  H    4.953582   5.047654   5.816035   6.729955   3.697571
    26  H    3.352648   3.569859   4.549881   5.387896   2.254394
    27  H    4.922669   4.716966   5.373438   6.256846   3.507555
    28  C    6.182203   4.814311   4.811176   5.739030   3.881598
    29  H    6.123322   4.805788   4.823265   5.699033   3.961590
    30  H    6.690792   4.929449   4.623379   5.509910   4.214153
    31  H    6.889020   5.769858   5.842833   6.780649   4.728676
                   16         17         18         19         20
    16  H    0.000000
    17  C    2.148263   0.000000
    18  O    3.114259   1.258400   0.000000
    19  C    2.924127   1.540000   2.426202   0.000000
    20  C    3.296039   2.514809   3.204621   1.540000   0.000000
    21  H    2.878211   2.454176   3.013356   2.148263   1.070000
    22  H    3.541177   3.267137   4.150169   2.148263   1.070000
    23  H    4.296210   3.178752   3.554224   2.148263   1.070000
    24  C    3.033181   2.514809   3.650628   1.540000   2.514810
    25  H    3.569672   3.350108   4.478426   2.148263   2.491263
    26  H    2.324055   2.491262   3.724732   2.148263   3.061375
    27  H    3.871778   3.061374   4.037772   2.148263   3.350109
    28  C    4.359975   2.514810   2.802136   1.540000   2.514809
    29  H    4.631728   2.772299   3.015762   2.148263   3.442835
    30  H    4.716218   2.694972   2.508986   2.148263   2.772299
    31  H    5.067730   3.442835   3.822855   2.148263   2.694973
                   21         22         23         24         25
    21  H    0.000000
    22  H    1.747303   0.000000
    23  H    1.747303   1.747303   0.000000
    24  C    3.178752   2.454177   3.267138   0.000000
    25  H    3.262511   1.993233   3.192242   1.070000   0.000000
    26  H    3.424065   2.984903   3.983698   1.070000   1.747303
    27  H    4.103873   3.353666   3.905734   1.070000   1.747303
    28  C    3.267138   3.178751   2.454176   2.514809   3.061374
    29  H    4.135428   4.029850   3.511329   2.694972   3.438129
    30  H    3.305281   3.651867   2.451913   3.442835   3.978668
    31  H    3.645319   3.103891   2.405906   2.772299   2.975428
                   26         27         28         29         30
    26  H    0.000000
    27  H    1.747303   0.000000
    28  C    3.350109   2.491263   0.000000
    29  H    3.413105   2.289288   1.070000   0.000000
    30  H    4.172411   3.525915   1.070000   1.747303   0.000000
    31  H    3.779589   2.671039   1.070000   1.747303   1.747303
                   31
    31  H    0.000000
 Stoichiometry    C13H16O2
 Framework group  C1[X(C13H16O2)]
 Deg. of freedom    87
 Full point group                 C1      NOp   1
 Largest Abelian subgroup         C1      NOp   1
 Largest concise Abelian subgroup C1      NOp   1
                         Standard orientation:                         
 ---------------------------------------------------------------------
 Center     Atomic      Atomic             Coordinates (Angstroms)
 Number     Number       Type             X           Y           Z
 ---------------------------------------------------------------------
      1          6           0        3.031799   -1.061764   -0.001759
      2          6           0        4.361962   -0.641744   -0.028601
      3          6           0        4.663341    0.719953   -0.041768
      4          6           0        3.634276    1.662337   -0.029292
      5          6           0        2.304447    1.242340   -0.002936
      6          6           0        2.003164   -0.119804    0.011228
      7          1           0        2.794410   -2.135390    0.009068
      8          1           0        5.172703   -1.384611   -0.038057
      9          1           0        5.711778    1.051098   -0.062291
     10          1           0        3.872146    2.735931   -0.039737
     11          1           0        1.493198    1.984804    0.006894
     12          6           0        0.534826   -0.583186    0.040605
     13          8           0        0.228574   -1.979938    0.054524
     14          1           0        1.043733   -2.486870    0.042844
     15          6           0       -0.468073    0.328185    0.053309
     16          1           0       -0.417752    0.901343    0.955450
     17          6           0       -1.823612   -0.399177   -0.017811
     18          8           0       -1.866159   -1.655528   -0.075633
     19          6           0       -3.131573    0.413742   -0.018171
     20          6           0       -3.659997    0.536625    1.423101
     21          1           0       -2.941603    0.127627    2.102461
     22          1           0       -3.824328    1.567957    1.656018
     23          1           0       -4.581212   -0.000328    1.512229
     24          6           0       -2.862439    1.818977   -0.587805
     25          1           0       -3.428828    2.541249   -0.037871
     26          1           0       -1.819798    2.044226   -0.503767
     27          1           0       -3.151697    1.847821   -1.617561
     28          6           0       -4.180242   -0.301456   -0.890171
     29          1           0       -3.849933   -0.312975   -1.907847
     30          1           0       -4.306052   -1.306280   -0.544627
     31          1           0       -5.113362    0.217963   -0.823910
 ---------------------------------------------------------------------
 Rotational constants (GHZ):      1.4988810      0.2760814      0.2458878
 Standard basis: 6-311G (5D, 7F)
 There are   243 symmetry adapted basis functions of A   symmetry.
 Integral buffers will be    262144 words long.
 Raffenetti 1 integral format.
 Two-electron integral symmetry is turned on.
   243 basis functions,   470 primitive gaussians,   243 cartesian basis functions
    55 alpha electrons       55 beta electrons
       nuclear repulsion energy       949.1490877252 Hartrees.
 NAtoms=   31 NActive=   31 NUniq=   31 SFac= 7.50D-01 NAtFMM=   80 NAOKFM=F Big=F
 One-electron integrals computed using PRISM.
 NBasis=   243 RedAO= T  NBF=   243
 NBsUse=   243 1.00D-06 NBFU=   243
 Harris functional with IExCor=  205 diagonalized for initial guess.
 ExpMin= 1.03D-01 ExpMax= 8.59D+03 ExpMxC= 1.30D+03 IAcc=1 IRadAn=         1 AccDes= 0.00D+00
 HarFok:  IExCor=  205 AccDes= 0.00D+00 IRadAn=         1 IDoV= 1
 ScaDFX=  1.000000  1.000000  1.000000  1.000000
 FoFCou: FMM=F IPFlag=           0 FMFlag=      100000 FMFlg1=           0
         NFxFlg=           0 DoJE=T BraDBF=F KetDBF=T FulRan=T
         Omega=  0.000000  0.000000  1.000000  0.000000  0.000000 ICntrl=     500 IOpCl=  0
         NMat0=    1 NMatS0=    1 NMatT0=    0 NMatD0=    1 NMtDS0=    0 NMtDT0=    0
         I1Cent=           4 NGrid=           0.
 Petite list used in FoFCou.
 Initial guess orbital symmetries:
       Occupied  (A) (A) (A) (A) (A) (A) (A) (A) (A) (A) (A) (A)
                 (A) (A) (A) (A) (A) (A) (A) (A) (A) (A) (A) (A)
                 (A) (A) (A) (A) (A) (A) (A) (A) (A) (A) (A) (A)
                 (A) (A) (A) (A) (A) (A) (A) (A) (A) (A) (A) (A)
                 (A) (A) (A) (A) (A) (A) (A)
       Virtual   (A) (A) (A) (A) (A) (A) (A) (A) (A) (A) (A) (A)
                 (A) (A) (A) (A) (A) (A) (A) (A) (A) (A) (A) (A)
                 (A) (A) (A) (A) (A) (A) (A) (A) (A) (A) (A) (A)
                 (A) (A) (A) (A) (A) (A) (A) (A) (A) (A) (A) (A)
                 (A) (A) (A) (A) (A) (A) (A) (A) (A) (A) (A) (A)
                 (A) (A) (A) (A) (A) (A) (A) (A) (A) (A) (A) (A)
                 (A) (A) (A) (A) (A) (A) (A) (A) (A) (A) (A) (A)
                 (A) (A) (A) (A) (A) (A) (A) (A) (A) (A) (A) (A)
                 (A) (A) (A) (A) (A) (A) (A) (A) (A) (A) (A) (A)
                 (A) (A) (A) (A) (A) (A) (A) (A) (A) (A) (A) (A)
                 (A) (A) (A) (A) (A) (A) (A) (A) (A) (A) (A) (A)
                 (A) (A) (A) (A) (A) (A) (A) (A) (A) (A) (A) (A)
                 (A) (A) (A) (A) (A) (A) (A) (A) (A) (A) (A) (A)
                 (A) (A) (A) (A) (A) (A) (A) (A) (A) (A) (A) (A)
                 (A) (A) (A) (A) (A) (A) (A) (A) (A) (A) (A) (A)
                 (A) (A) (A) (A) (A) (A) (A) (A)
 The electronic state of the initial guess is 1-A.
 Requested convergence on RMS density matrix=1.00D-08 within 128 cycles.
 Requested convergence on MAX density matrix=1.00D-06.
 Requested convergence on             energy=1.00D-06.
 No special actions if energy rises.
 Integral accuracy reduced to 1.0D-05 until final iterations.
 Initial convergence to 1.0D-05 achieved.  Increase integral accuracy.
 SCF Done:  E(RHF) =  -651.064143193     A.U. after   18 cycles
             Convg  =    0.5975D-08             -V/T =  1.9998

 **********************************************************************

            Population analysis using the SCF density.

 **********************************************************************

 Orbital symmetries:
       Occupied  (A) (A) (A) (A) (A) (A) (A) (A) (A) (A) (A) (A)
                 (A) (A) (A) (A) (A) (A) (A) (A) (A) (A) (A) (A)
                 (A) (A) (A) (A) (A) (A) (A) (A) (A) (A) (A) (A)
                 (A) (A) (A) (A) (A) (A) (A) (A) (A) (A) (A) (A)
                 (A) (A) (A) (A) (A) (A) (A)
       Virtual   (A) (A) (A) (A) (A) (A) (A) (A) (A) (A) (A) (A)
                 (A) (A) (A) (A) (A) (A) (A) (A) (A) (A) (A) (A)
                 (A) (A) (A) (A) (A) (A) (A) (A) (A) (A) (A) (A)
                 (A) (A) (A) (A) (A) (A) (A) (A) (A) (A) (A) (A)
                 (A) (A) (A) (A) (A) (A) (A) (A) (A) (A) (A) (A)
                 (A) (A) (A) (A) (A) (A) (A) (A) (A) (A) (A) (A)
                 (A) (A) (A) (A) (A) (A) (A) (A) (A) (A) (A) (A)
                 (A) (A) (A) (A) (A) (A) (A) (A) (A) (A) (A) (A)
                 (A) (A) (A) (A) (A) (A) (A) (A) (A) (A) (A) (A)
                 (A) (A) (A) (A) (A) (A) (A) (A) (A) (A) (A) (A)
                 (A) (A) (A) (A) (A) (A) (A) (A) (A) (A) (A) (A)
                 (A) (A) (A) (A) (A) (A) (A) (A) (A) (A) (A) (A)
                 (A) (A) (A) (A) (A) (A) (A) (A) (A) (A) (A) (A)
                 (A) (A) (A) (A) (A) (A) (A) (A) (A) (A) (A) (A)
                 (A) (A) (A) (A) (A) (A) (A) (A) (A) (A) (A) (A)
                 (A) (A) (A) (A) (A) (A) (A) (A)
 The electronic state is 1-A.
 Alpha  occ. eigenvalues --  -20.59908 -20.51047 -11.36705 -11.32125 -11.29048
 Alpha  occ. eigenvalues --  -11.28105 -11.27384 -11.27362 -11.27223 -11.27017
 Alpha  occ. eigenvalues --  -11.23883 -11.22686 -11.20678 -11.19748 -11.19414
 Alpha  occ. eigenvalues --   -1.41143  -1.34371  -1.19216  -1.10408  -1.08989
 Alpha  occ. eigenvalues --   -1.04936  -1.03243  -0.93954  -0.93346  -0.88449
 Alpha  occ. eigenvalues --   -0.85933  -0.83870  -0.77918  -0.76183  -0.70257
 Alpha  occ. eigenvalues --   -0.68403  -0.65715  -0.64879  -0.63989  -0.61677
 Alpha  occ. eigenvalues --   -0.61171  -0.60582  -0.59397  -0.58781  -0.57015
 Alpha  occ. eigenvalues --   -0.55523  -0.54847  -0.53018  -0.52860  -0.51929
 Alpha  occ. eigenvalues --   -0.51368  -0.50535  -0.49685  -0.47495  -0.44724
 Alpha  occ. eigenvalues --   -0.43576  -0.39630  -0.36606  -0.36124  -0.32113
 Alpha virt. eigenvalues --    0.05188   0.10676   0.13094   0.15454   0.15674
 Alpha virt. eigenvalues --    0.15909   0.17522   0.18425   0.19342   0.20676
 Alpha virt. eigenvalues --    0.21395   0.21823   0.22885   0.24520   0.25164
 Alpha virt. eigenvalues --    0.26336   0.26958   0.27604   0.29785   0.31038
 Alpha virt. eigenvalues --    0.33102   0.33917   0.34639   0.37070   0.38695
 Alpha virt. eigenvalues --    0.39411   0.40209   0.41240   0.41812   0.42943
 Alpha virt. eigenvalues --    0.44397   0.45491   0.48844   0.49996   0.51108
 Alpha virt. eigenvalues --    0.52240   0.52992   0.54052   0.54597   0.54825
 Alpha virt. eigenvalues --    0.55530   0.55912   0.58402   0.59358   0.60186
 Alpha virt. eigenvalues --    0.60297   0.61094   0.61700   0.62573   0.63258
 Alpha virt. eigenvalues --    0.64321   0.64383   0.67518   0.67710   0.69995
 Alpha virt. eigenvalues --    0.71831   0.72036   0.74076   0.74770   0.76898
 Alpha virt. eigenvalues --    0.78005   0.79277   0.80119   0.80474   0.80713
 Alpha virt. eigenvalues --    0.81086   0.81648   0.82117   0.82549   0.82952
 Alpha virt. eigenvalues --    0.83611   0.84266   0.84671   0.84916   0.85701
 Alpha virt. eigenvalues --    0.86751   0.87799   0.88228   0.89178   0.90896
 Alpha virt. eigenvalues --    0.92081   0.94030   0.94427   0.95039   0.95431
 Alpha virt. eigenvalues --    0.96702   0.99674   1.02723   1.04313   1.07349
 Alpha virt. eigenvalues --    1.09306   1.10214   1.10918   1.11296   1.13020
 Alpha virt. eigenvalues --    1.14854   1.16325   1.17883   1.20714   1.24570
 Alpha virt. eigenvalues --    1.25119   1.26864   1.30312   1.31200   1.32234
 Alpha virt. eigenvalues --    1.35921   1.40797   1.48574   1.53652   1.69020
 Alpha virt. eigenvalues --    1.88073   2.18581   2.44629   2.53986   2.55166
 Alpha virt. eigenvalues --    2.59677   2.60280   2.61381   2.63612   2.64855
 Alpha virt. eigenvalues --    2.66608   2.66836   2.68205   2.69423   2.70834
 Alpha virt. eigenvalues --    2.72193   2.74547   2.84761   2.88651   2.91438
 Alpha virt. eigenvalues --    2.93491   2.97459   3.03047   3.03846   3.06895
 Alpha virt. eigenvalues --    3.09664   3.12942   3.14397   3.18243   3.21433
 Alpha virt. eigenvalues --    3.23136   3.23528   3.25268   3.26415   3.28544
 Alpha virt. eigenvalues --    3.31346   3.31726   3.33313   3.34337   3.35149
 Alpha virt. eigenvalues --    3.39675   3.42422   3.44490   3.46865   3.49362
 Alpha virt. eigenvalues --    3.50848   3.52818   3.55829   3.57658   3.59550
 Alpha virt. eigenvalues --    3.61484   3.63265   3.65118   3.67939   3.68851
 Alpha virt. eigenvalues --    3.72556   3.84991   5.35406   5.47959   5.50958
 Alpha virt. eigenvalues --    5.56343   5.69037   5.80937  24.23407  24.40225
 Alpha virt. eigenvalues --   24.47499  24.49627  24.55394  24.62824  24.67556
 Alpha virt. eigenvalues --   24.68859  24.74488  24.77164  24.83056  24.86021
 Alpha virt. eigenvalues --   25.01500  51.54666  51.68167
          Condensed to atoms (all electrons):
              1          2          3          4          5          6
     1  C    5.210945   0.428678  -0.092042  -0.037306  -0.071635   0.357883
     2  C    0.428678   5.066207   0.493613  -0.068558  -0.030065  -0.055212
     3  C   -0.092042   0.493613   5.013592   0.478278  -0.089844  -0.008688
     4  C   -0.037306  -0.068558   0.478278   5.116895   0.428503  -0.067847
     5  C   -0.071635  -0.030065  -0.089844   0.428503   5.044268   0.475341
     6  C    0.357883  -0.055212  -0.008688  -0.067847   0.475341   5.762042
     7  H    0.391984  -0.015506   0.004575  -0.000260   0.002592  -0.076690
     8  H   -0.036845   0.396159  -0.036737   0.005508  -0.000317   0.005140
     9  H    0.008168  -0.041048   0.397213  -0.041636   0.007600  -0.001788
    10  H   -0.000279   0.005458  -0.038810   0.396178  -0.035664   0.005732
    11  H    0.004143  -0.000188   0.004038  -0.033773   0.387850  -0.037477
    12  C   -0.042834   0.015585   0.000054   0.012772  -0.002585  -0.079545
    13  O    0.002638   0.001268  -0.000034  -0.000041   0.003308  -0.116829
    14  H    0.000741  -0.000059   0.000017  -0.000025   0.000395  -0.002802
    15  C    0.010063  -0.000562   0.000062   0.000402   0.001448  -0.112164
    16  H    0.000205   0.000087  -0.000061   0.000543   0.000837  -0.019215
    17  C   -0.000328   0.000022   0.000001  -0.000026   0.000148   0.012921
    18  O    0.000187   0.000002   0.000000   0.000000   0.000021  -0.001477
    19  C    0.000026   0.000000   0.000000   0.000001   0.000102  -0.001575
    20  C    0.000000   0.000000   0.000000   0.000000  -0.000003   0.000023
    21  H   -0.000002   0.000000   0.000000   0.000000   0.000000   0.000043
    22  H    0.000000   0.000000   0.000000   0.000000   0.000000  -0.000002
    23  H    0.000000   0.000000   0.000000   0.000000   0.000000  -0.000001
    24  C   -0.000002   0.000000   0.000000  -0.000002  -0.000074   0.000248
    25  H    0.000000   0.000000   0.000000   0.000000  -0.000002   0.000001
    26  H    0.000008   0.000000   0.000000  -0.000004   0.000173  -0.000248
    27  H    0.000000   0.000000   0.000000   0.000000  -0.000004  -0.000009
    28  C    0.000000   0.000000   0.000000   0.000000  -0.000001   0.000011
    29  H    0.000000   0.000000   0.000000   0.000000   0.000000  -0.000002
    30  H    0.000000   0.000000   0.000000   0.000000   0.000000   0.000000
    31  H    0.000000   0.000000   0.000000   0.000000   0.000000   0.000000
              7          8          9         10         11         12
     1  C    0.391984  -0.036845   0.008168  -0.000279   0.004143  -0.042834
     2  C   -0.015506   0.396159  -0.041048   0.005458  -0.000188   0.015585
     3  C    0.004575  -0.036737   0.397213  -0.038810   0.004038   0.000054
     4  C   -0.000260   0.005508  -0.041636   0.396178  -0.033773   0.012772
     5  C    0.002592  -0.000317   0.007600  -0.035664   0.387850  -0.002585
     6  C   -0.076690   0.005140  -0.001788   0.005732  -0.037477  -0.079545
     7  H    0.513326  -0.003403  -0.000166   0.000022  -0.000215   0.006156
     8  H   -0.003403   0.498201  -0.003895  -0.000185   0.000017  -0.000315
     9  H   -0.000166  -0.003895   0.501327  -0.003936  -0.000128  -0.000054
    10  H    0.000022  -0.000185  -0.003936   0.496905  -0.003100  -0.000296
    11  H   -0.000215   0.000017  -0.000128  -0.003100   0.454768  -0.001243
    12  C    0.006156  -0.000315  -0.000054  -0.000296  -0.001243   5.342093
    13  O   -0.001554  -0.000001   0.000000   0.000001   0.000193   0.329351
    14  H    0.009380  -0.000027   0.000001   0.000000  -0.000014  -0.027709
    15  C    0.001862   0.000003   0.000000   0.000040   0.006103   0.092666
    16  H   -0.000013   0.000001   0.000000   0.000010  -0.000320  -0.029209
    17  C   -0.000022   0.000000   0.000000   0.000000   0.000403  -0.016142
    18  O    0.000063   0.000000   0.000000   0.000000   0.000003   0.023414
    19  C    0.000003   0.000000   0.000000   0.000000  -0.000104   0.012134
    20  C    0.000000   0.000000   0.000000   0.000000  -0.000001  -0.000546
    21  H    0.000000   0.000000   0.000000   0.000000  -0.000002  -0.000017
    22  H    0.000000   0.000000   0.000000   0.000000   0.000001   0.000035
    23  H    0.000000   0.000000   0.000000   0.000000   0.000000   0.000048
    24  C    0.000000   0.000000   0.000000   0.000000   0.000177   0.000433
    25  H    0.000000   0.000000   0.000000   0.000000   0.000001  -0.000047
    26  H    0.000001   0.000000   0.000000  -0.000002   0.000607   0.000626
    27  H    0.000000   0.000000   0.000000   0.000000   0.000000   0.000014
    28  C    0.000000   0.000000   0.000000   0.000000  -0.000001  -0.001190
    29  H    0.000000   0.000000   0.000000   0.000000   0.000000  -0.000113
    30  H    0.000000   0.000000   0.000000   0.000000   0.000000  -0.000212
    31  H    0.000000   0.000000   0.000000   0.000000   0.000000   0.000050
             13         14         15         16         17         18
     1  C    0.002638   0.000741   0.010063   0.000205  -0.000328   0.000187
     2  C    0.001268  -0.000059  -0.000562   0.000087   0.000022   0.000002
     3  C   -0.000034   0.000017   0.000062  -0.000061   0.000001   0.000000
     4  C   -0.000041  -0.000025   0.000402   0.000543  -0.000026   0.000000
     5  C    0.003308   0.000395   0.001448   0.000837   0.000148   0.000021
     6  C   -0.116829  -0.002802  -0.112164  -0.019215   0.012921  -0.001477
     7  H   -0.001554   0.009380   0.001862  -0.000013  -0.000022   0.000063
     8  H   -0.000001  -0.000027   0.000003   0.000001   0.000000   0.000000
     9  H    0.000000   0.000001   0.000000   0.000000   0.000000   0.000000
    10  H    0.000001   0.000000   0.000040   0.000010   0.000000   0.000000
    11  H    0.000193  -0.000014   0.006103  -0.000320   0.000403   0.000003
    12  C    0.329351  -0.027709   0.092666  -0.029209  -0.016142   0.023414
    13  O    8.443163   0.254168  -0.158608   0.004457   0.006984  -0.110150
    14  H    0.254168   0.364507   0.007320  -0.000379  -0.000176   0.004460
    15  C   -0.158608   0.007320   6.439296   0.339898   0.047646  -0.161076
    16  H    0.004457  -0.000379   0.339898   0.512718  -0.040796   0.004217
    17  C    0.006984  -0.000176   0.047646  -0.040796   5.207337   0.575667
    18  O   -0.110150   0.004460  -0.161076   0.004217   0.575667   8.274594
    19  C   -0.001798   0.000132  -0.156750   0.008885  -0.070680  -0.140349
    20  C    0.000047  -0.000007   0.000736   0.000797  -0.069876   0.004973
    21  H    0.000065  -0.000001   0.002394   0.000637   0.000926   0.001988
    22  H   -0.000003   0.000000  -0.000169  -0.000100   0.003953  -0.000103
    23  H    0.000000   0.000000  -0.000367   0.000002   0.001764  -0.000126
    24  C    0.000034  -0.000004   0.004012  -0.006799  -0.063735   0.005696
    25  H   -0.000001   0.000000  -0.000488   0.000107   0.007861  -0.000228
    26  H    0.000001  -0.000005  -0.008405   0.000126   0.002644   0.000412
    27  H    0.000001   0.000000   0.000398   0.000126   0.001343  -0.000200
    28  C    0.000036  -0.000002   0.008384  -0.000052  -0.074447   0.006314
    29  H   -0.000008   0.000000  -0.000216  -0.000002  -0.005649   0.001166
    30  H    0.000061  -0.000001   0.002009  -0.000087  -0.006734   0.011956
    31  H   -0.000001   0.000000  -0.000491   0.000017   0.012027  -0.000089
             19         20         21         22         23         24
     1  C    0.000026   0.000000  -0.000002   0.000000   0.000000  -0.000002
     2  C    0.000000   0.000000   0.000000   0.000000   0.000000   0.000000
     3  C    0.000000   0.000000   0.000000   0.000000   0.000000   0.000000
     4  C    0.000001   0.000000   0.000000   0.000000   0.000000  -0.000002
     5  C    0.000102  -0.000003   0.000000   0.000000   0.000000  -0.000074
     6  C   -0.001575   0.000023   0.000043  -0.000002  -0.000001   0.000248
     7  H    0.000003   0.000000   0.000000   0.000000   0.000000   0.000000
     8  H    0.000000   0.000000   0.000000   0.000000   0.000000   0.000000
     9  H    0.000000   0.000000   0.000000   0.000000   0.000000   0.000000
    10  H    0.000000   0.000000   0.000000   0.000000   0.000000   0.000000
    11  H   -0.000104  -0.000001  -0.000002   0.000001   0.000000   0.000177
    12  C    0.012134  -0.000546  -0.000017   0.000035   0.000048   0.000433
    13  O   -0.001798   0.000047   0.000065  -0.000003   0.000000   0.000034
    14  H    0.000132  -0.000007  -0.000001   0.000000   0.000000  -0.000004
    15  C   -0.156750   0.000736   0.002394  -0.000169  -0.000367   0.004012
    16  H    0.008885   0.000797   0.000637  -0.000100   0.000002  -0.006799
    17  C   -0.070680  -0.069876   0.000926   0.003953   0.001764  -0.063735
    18  O   -0.140349   0.004973   0.001988  -0.000103  -0.000126   0.005696
    19  C    6.655494   0.112783  -0.063151  -0.053515  -0.052948   0.070439
    20  C    0.112783   5.388817   0.389995   0.394418   0.399795  -0.074176
    21  H   -0.063151   0.389995   0.526056  -0.026900  -0.021993   0.006315
    22  H   -0.053515   0.394418  -0.026900   0.545058  -0.026598  -0.010251
    23  H   -0.052948   0.399795  -0.021993  -0.026598   0.507316   0.006503
    24  C    0.070439  -0.074176   0.006315  -0.010251   0.006503   5.463764
    25  H   -0.046969  -0.012302   0.000500  -0.000500   0.000889   0.380294
    26  H   -0.061804   0.004840  -0.000467   0.000922  -0.000478   0.394818
    27  H   -0.055916   0.007940  -0.000525   0.000975  -0.000425   0.392660
    28  C    0.204319  -0.064803   0.005642   0.002298  -0.005845  -0.085971
    29  H   -0.050866   0.009417  -0.000434  -0.000585   0.000537  -0.004924
    30  H   -0.049174  -0.001575   0.000348  -0.000190   0.001125   0.008814
    31  H   -0.054787  -0.007861  -0.000104   0.000354   0.000080  -0.003987
             25         26         27         28         29         30
     1  C    0.000000   0.000008   0.000000   0.000000   0.000000   0.000000
     2  C    0.000000   0.000000   0.000000   0.000000   0.000000   0.000000
     3  C    0.000000   0.000000   0.000000   0.000000   0.000000   0.000000
     4  C    0.000000  -0.000004   0.000000   0.000000   0.000000   0.000000
     5  C   -0.000002   0.000173  -0.000004  -0.000001   0.000000   0.000000
     6  C    0.000001  -0.000248  -0.000009   0.000011  -0.000002   0.000000
     7  H    0.000000   0.000001   0.000000   0.000000   0.000000   0.000000
     8  H    0.000000   0.000000   0.000000   0.000000   0.000000   0.000000
     9  H    0.000000   0.000000   0.000000   0.000000   0.000000   0.000000
    10  H    0.000000  -0.000002   0.000000   0.000000   0.000000   0.000000
    11  H    0.000001   0.000607   0.000000  -0.000001   0.000000   0.000000
    12  C   -0.000047   0.000626   0.000014  -0.001190  -0.000113  -0.000212
    13  O   -0.000001   0.000001   0.000001   0.000036  -0.000008   0.000061
    14  H    0.000000  -0.000005   0.000000  -0.000002   0.000000  -0.000001
    15  C   -0.000488  -0.008405   0.000398   0.008384  -0.000216   0.002009
    16  H    0.000107   0.000126   0.000126  -0.000052  -0.000002  -0.000087
    17  C    0.007861   0.002644   0.001343  -0.074447  -0.005649  -0.006734
    18  O   -0.000228   0.000412  -0.000200   0.006314   0.001166   0.011956
    19  C   -0.046969  -0.061804  -0.055916   0.204319  -0.050866  -0.049174
    20  C   -0.012302   0.004840   0.007940  -0.064803   0.009417  -0.001575
    21  H    0.000500  -0.000467  -0.000525   0.005642  -0.000434   0.000348
    22  H   -0.000500   0.000922   0.000975   0.002298  -0.000585  -0.000190
    23  H    0.000889  -0.000478  -0.000425  -0.005845   0.000537   0.001125
    24  C    0.380294   0.394818   0.392660  -0.085971  -0.004924   0.008814
    25  H    0.558745  -0.024465  -0.026442   0.002141  -0.000086  -0.000527
    26  H   -0.024465   0.504399  -0.020551   0.006265   0.000236  -0.000399
    27  H   -0.026442  -0.020551   0.526133  -0.003513   0.002583   0.000328
    28  C    0.002141   0.006265  -0.003513   5.285920   0.394968   0.392009
    29  H   -0.000086   0.000236   0.002583   0.394968   0.543312  -0.022286
    30  H   -0.000527  -0.000399   0.000328   0.392009  -0.022286   0.492154
    31  H    0.000955  -0.000060  -0.000532   0.396060  -0.031825  -0.030257
             31
     1  C    0.000000
     2  C    0.000000
     3  C    0.000000
     4  C    0.000000
     5  C    0.000000
     6  C    0.000000
     7  H    0.000000
     8  H    0.000000
     9  H    0.000000
    10  H    0.000000
    11  H    0.000000
    12  C    0.000050
    13  O   -0.000001
    14  H    0.000000
    15  C   -0.000491
    16  H    0.000017
    17  C    0.012027
    18  O   -0.000089
    19  C   -0.054787
    20  C   -0.007861
    21  H   -0.000104
    22  H    0.000354
    23  H    0.000080
    24  C   -0.003987
    25  H    0.000955
    26  H   -0.000060
    27  H   -0.000532
    28  C    0.396060
    29  H   -0.031825
    30  H   -0.030257
    31  H    0.562270
 Mulliken atomic charges:
              1
     1  C   -0.134396
     2  C   -0.195881
     3  C   -0.125226
     4  C   -0.189601
     5  C   -0.122392
     6  C   -0.037816
     7  H    0.167866
     8  H    0.176695
     9  H    0.178342
    10  H    0.177925
    11  H    0.218263
    12  C    0.366625
    13  O   -0.656748
    14  H    0.390092
    15  C   -0.365446
    16  H    0.223364
    17  C    0.466963
    18  O   -0.501335
    19  C   -0.203930
    20  C   -0.483431
    21  H    0.178688
    22  H    0.170902
    23  H    0.190720
    24  C   -0.484281
    25  H    0.160562
    26  H    0.200808
    27  H    0.175615
    28  C   -0.468543
    29  H    0.164779
    30  H    0.202637
    31  H    0.158179
 Sum of Mulliken atomic charges =   0.00000
 Mulliken charges with hydrogens summed into heavy atoms:
              1
     1  C    0.033470
     2  C   -0.019186
     3  C    0.053116
     4  C   -0.011675
     5  C    0.095870
     6  C   -0.037816
    12  C    0.366625
    13  O   -0.266656
    15  C   -0.142082
    17  C    0.466963
    18  O   -0.501335
    19  C   -0.203930
    20  C    0.056880
    24  C    0.052704
    28  C    0.057053
 Sum of Mulliken charges with hydrogens summed into heavy atoms =   0.00000
 Electronic spatial extent (au):  <R**2>=           4459.1363
 Charge=              0.0000 electrons
 Dipole moment (field-independent basis, Debye):
    X=              4.7379    Y=              2.4333    Z=              0.9656  Tot=              5.4130
 Quadrupole moment (field-independent basis, Debye-Ang):
   XX=            -77.5534   YY=            -91.2436   ZZ=            -95.7279
   XY=             -8.9425   XZ=             -1.1680   YZ=              0.9076
 Traceless Quadrupole moment (field-independent basis, Debye-Ang):
   XX=             10.6216   YY=             -3.0687   ZZ=             -7.5530
   XY=             -8.9425   XZ=             -1.1680   YZ=              0.9076
 Octapole moment (field-independent basis, Debye-Ang**2):
  XXX=             57.3258  YYY=             -9.5627  ZZZ=             -0.0224  XYY=             38.7681
  XXY=              5.3598  XXZ=              1.3128  XZZ=            -18.8130  YZZ=             -6.4757
  YYZ=              2.6577  XYZ=             -0.4851
 Hexadecapole moment (field-independent basis, Debye-Ang**3):
 XXXX=          -4618.0037 YYYY=           -797.4286 ZZZZ=           -285.3662 XXXY=             11.1364
 XXXZ=            -24.1485 YYYX=            -25.9180 YYYZ=              3.4707 ZZZX=              7.3997
 ZZZY=             -0.0002 XXYY=           -933.0182 XXZZ=           -963.3079 YYZZ=           -196.4074
 XXYZ=             -2.3870 YYXZ=             -6.3957 ZZXY=             -2.2261
 N-N= 9.491490877252D+02 E-N=-3.420304094549D+03  KE= 6.512014665861D+02
 Calling FoFJK, ICntrl=      2127 FMM=F ISym2X=0 I1Cent= 0 IOpClX= 0 NMat=1 NMatS=1 NMatT=0.
 ***** Axes restored to original set *****
 -------------------------------------------------------------------
 Center     Atomic                   Forces (Hartrees/Bohr)
 Number     Number              X              Y              Z
 -------------------------------------------------------------------
      1        6           0.000720936   -0.007811586    0.000371310
      2        6           0.005216590   -0.012713387   -0.000618029
      3        6           0.011854937   -0.001082774   -0.000106808
      4        6           0.002502521    0.009675214    0.001544553
      5        6           0.000241085    0.015953420   -0.000180666
      6        6          -0.034374796   -0.013885036    0.010014013
      7        1           0.016077486    0.015746167    0.000396261
      8        1          -0.010463675    0.017712333   -0.000127752
      9        1          -0.020530877   -0.000283845   -0.000257264
     10        1          -0.010883562   -0.017702880   -0.000059942
     11        1           0.011686670   -0.019704031   -0.002538150
     12        6           0.023265987   -0.034295369   -0.006393439
     13        8           0.094041063    0.017991418   -0.009807275
     14        1          -0.010775285    0.004570900   -0.002841356
     15        6          -0.068235869   -0.061038741    0.038438367
     16        1           0.017903579    0.037336253   -0.016706177
     17        6          -0.010452049   -0.035996249   -0.007767733
     18        8          -0.025691956    0.080263342   -0.002713804
     19        6           0.006129507    0.001602351   -0.010455527
     20        6           0.006654403   -0.007084695   -0.003772026
     21        1          -0.000799387   -0.001839944    0.012334393
     22        1          -0.001968702    0.004433429    0.007364904
     23        1          -0.005889403   -0.002079755    0.006181004
     24        6          -0.003622637   -0.007700470    0.001991997
     25        1          -0.000700395    0.009234506   -0.002224731
     26        1           0.004373373    0.008444336   -0.002732662
     27        1           0.003233296    0.004549274   -0.008165839
     28        6           0.012039383   -0.003410861    0.009304027
     29        1          -0.001388971   -0.002659577   -0.008608383
     30        1          -0.004017874   -0.005253651   -0.000701914
     31        1          -0.006145377    0.007029909   -0.001161353
 -------------------------------------------------------------------
 Cartesian Forces:  Max     0.094041063 RMS     0.020087158

 GradGradGradGradGradGradGradGradGradGradGradGradGradGradGradGradGradGrad
 Berny optimization.
 Internal  Forces:  Max     0.224961703 RMS     0.025946836
 Search for a local minimum.
 Step number   1 out of a maximum of  164
 All quantities printed in internal units (Hartrees-Bohrs-Radians)
 Mixed Optimization -- RFO/linear search
 Second derivative matrix not updated -- first step.
     Eigenvalues ---    0.00237   0.00237   0.00237   0.00237   0.00237
     Eigenvalues ---    0.00237   0.00237   0.01295   0.01426   0.01565
     Eigenvalues ---    0.02152   0.02153   0.02154   0.02155   0.02155
     Eigenvalues ---    0.02155   0.02156   0.02157   0.02681   0.04448
     Eigenvalues ---    0.04739   0.05241   0.05241   0.05720   0.05720
     Eigenvalues ---    0.05720   0.05720   0.05720   0.05720   0.12077
     Eigenvalues ---    0.15006   0.15006   0.16000   0.16000   0.16000
     Eigenvalues ---    0.16000   0.16000   0.16000   0.16000   0.16000
     Eigenvalues ---    0.16000   0.16000   0.16000   0.16000   0.16000
     Eigenvalues ---    0.16000   0.16000   0.22000   0.22000   0.23486
     Eigenvalues ---    0.23488   0.25000   0.25000   0.25000   0.25000
     Eigenvalues ---    0.25000   0.28519   0.28519   0.28519   0.28519
     Eigenvalues ---    0.28519   0.28519   0.33709   0.33718   0.33718
     Eigenvalues ---    0.33720   0.33725   0.37230   0.37230   0.37230
     Eigenvalues ---    0.37230   0.37230   0.37230   0.37230   0.37230
     Eigenvalues ---    0.37230   0.37230   0.40989   0.42116   0.42305
     Eigenvalues ---    0.46412   0.46453   0.46466   0.46497   0.53930
     Eigenvalues ---    0.55473   0.802091000.000001000.000001000.00000
     Eigenvalues --- 1000.000001000.000001000.000001000.000001000.00000
     Eigenvalues --- 1000.000001000.000001000.000001000.000001000.00000
     Eigenvalues --- 1000.000001000.000001000.000001000.000001000.00000
     Eigenvalues --- 1000.000001000.000001000.000001000.000001000.00000
     Eigenvalues --- 1000.000001000.000001000.000001000.000001000.00000
     Eigenvalues --- 1000.000001000.000001000.000001000.000001000.00000
     Eigenvalues --- 1000.000001000.000001000.000001000.000001000.00000
     Eigenvalues --- 1000.000001000.000001000.000001000.000001000.00000
     Eigenvalues --- 1000.000001000.000001000.000001000.000001000.00000
     Eigenvalues --- 1000.000001000.000001000.000001000.000001000.00000
     Eigenvalues --- 1000.000001000.000001000.000001000.000001000.00000
     Eigenvalues --- 1000.000001000.000001000.000001000.000001000.00000
     Eigenvalues --- 1000.000001000.000001000.000001000.00000
 RFO step:  Lambda=-2.22308274D-01 EMin= 2.36824051D-03
 Linear search not attempted -- first point.
 Maximum step size (   0.300) exceeded in Quadratic search.
    -- Step size scaled by   0.423
 Iteration  1 RMS(Cart)=  0.19959541 RMS(Int)=  0.00851677
 Iteration  2 RMS(Cart)=  0.04065905 RMS(Int)=  0.00063498
 Iteration  3 RMS(Cart)=  0.00062870 RMS(Int)=  0.00059363
 Iteration  4 RMS(Cart)=  0.00000021 RMS(Int)=  0.00059363
 Variable       Old X    -DE/DX   Delta X   Delta X   Delta X     New X
                                 (Linear)    (Quad)   (Total)
    R1        2.63647  -0.01069   0.00000  -0.00656  -0.00656   2.62991
    R2        2.63584  -0.00005   0.00000   0.00010   0.00010   2.63595
    R3        2.07796  -0.02167   0.00000  -0.01637  -0.01637   2.06160
    R4        2.63562  -0.01082   0.00000  -0.00677  -0.00677   2.62885
    R5        2.07805  -0.02057   0.00000  -0.01554  -0.01554   2.06251
    R6        2.63697  -0.00853   0.00000  -0.00539  -0.00539   2.63159
    R7        2.07809  -0.02053   0.00000  -0.01551  -0.01551   2.06259
    R8        2.63584  -0.01161   0.00000  -0.00716  -0.00716   2.62868
    R9        2.07809  -0.02077   0.00000  -0.01569  -0.01569   2.06241
   R10        2.63643  -0.00313   0.00000  -0.00181  -0.00181   2.63462
   R11        2.07825  -0.02291   0.00000  -0.01730  -0.01730   2.06095
   R12        2.91018  -0.02795   0.00000  -0.02327  -0.02327   2.88691
   R13        2.70231  -0.06107   0.00000  -0.04081  -0.04081   2.66149
   R14        2.56096   0.06186   0.00000   0.03432   0.03432   2.59528
   R15        1.81414  -0.01048   0.00000  -0.00570  -0.00570   1.80844
   R16        2.02201   0.00780   0.00000   0.00554   0.00554   2.02755
   R17        2.91018   0.01924   0.00000   0.01602   0.01602   2.92620
   R18        2.37803  -0.06693   0.00000  -0.02761  -0.02761   2.35043
   R19        2.91018  -0.00113   0.00000  -0.00094  -0.00094   2.90923
   R20        2.91018   0.02002   0.00000   0.01667   0.01667   2.92685
   R21        2.91018   0.01737   0.00000   0.01446   0.01446   2.92464
   R22        2.91018   0.00132   0.00000   0.00110   0.00110   2.91128
   R23        2.02201   0.00859   0.00000   0.00610   0.00610   2.02811
   R24        2.02201   0.00563   0.00000   0.00400   0.00400   2.02601
   R25        2.02201   0.00659   0.00000   0.00468   0.00468   2.02669
   R26        2.02201   0.00651   0.00000   0.00462   0.00462   2.02663
   R27        2.02201   0.00328   0.00000   0.00233   0.00233   2.02434
   R28        2.02201   0.00764   0.00000   0.00543   0.00543   2.02743
   R29        2.02201   0.00798   0.00000   0.00567   0.00567   2.02768
   R30        2.02201   0.00591   0.00000   0.00420   0.00420   2.02621
   R31        2.02201   0.00926   0.00000   0.00658   0.00658   2.02859
    A1        2.09437   0.00359   0.00000   0.00360   0.00360   2.09797
    A2        2.09435  -0.00808   0.00000  -0.00875  -0.00875   2.08560
    A3        2.09447   0.00449   0.00000   0.00515   0.00515   2.09962
    A4        2.09455  -0.00001   0.00000  -0.00024  -0.00024   2.09431
    A5        2.09406  -0.00022   0.00000  -0.00012  -0.00012   2.09394
    A6        2.09458   0.00023   0.00000   0.00036   0.00036   2.09494
    A7        2.09429  -0.00028   0.00000  -0.00074  -0.00074   2.09355
    A8        2.09462  -0.00015   0.00000   0.00005   0.00005   2.09467
    A9        2.09427   0.00043   0.00000   0.00070   0.00070   2.09497
   A10        2.09429   0.00201   0.00000   0.00161   0.00161   2.09590
   A11        2.09407  -0.00042   0.00000  -0.00015  -0.00015   2.09391
   A12        2.09483  -0.00159   0.00000  -0.00145  -0.00145   2.09338
   A13        2.09448   0.00214   0.00000   0.00213   0.00213   2.09661
   A14        2.09459  -0.00134   0.00000  -0.00137  -0.00137   2.09322
   A15        2.09411  -0.00080   0.00000  -0.00076  -0.00076   2.09335
   A16        2.09440  -0.00745   0.00000  -0.00636  -0.00636   2.08804
   A17        2.09453   0.01212   0.00000   0.01068   0.01068   2.10522
   A18        2.09426  -0.00466   0.00000  -0.00433  -0.00433   2.08993
   A19        2.09241  -0.05983   0.00000  -0.05353  -0.05353   2.03889
   A20        2.09836  -0.03556   0.00000  -0.03181  -0.03181   2.06654
   A21        2.09241   0.09539   0.00000   0.08534   0.08534   2.17775
   A22        1.91114   0.00944   0.00000   0.01044   0.01044   1.92157
   A23        1.91063  -0.03978   0.00000  -0.01971  -0.02369   1.88694
   A24        1.91063   0.22496   0.00000   0.21337   0.21041   2.12105
   A25        1.91063  -0.04730   0.00000  -0.03163  -0.03632   1.87432
   A26        2.09836   0.07805   0.00000   0.06982   0.06982   2.16818
   A27        2.09241  -0.03449   0.00000  -0.03086  -0.03086   2.06156
   A28        2.09241  -0.04356   0.00000  -0.03897  -0.03897   2.05345
   A29        1.91063  -0.00715   0.00000  -0.00867  -0.00870   1.90193
   A30        1.91063   0.00785   0.00000   0.01006   0.01007   1.92070
   A31        1.91063  -0.00253   0.00000  -0.00425  -0.00424   1.90639
   A32        1.91063   0.00399   0.00000   0.00578   0.00580   1.91643
   A33        1.91063   0.00309   0.00000   0.00251   0.00250   1.91313
   A34        1.91063  -0.00525   0.00000  -0.00543  -0.00543   1.90520
   A35        1.91063   0.01034   0.00000   0.01143   0.01139   1.92202
   A36        1.91063   0.00705   0.00000   0.00793   0.00790   1.91853
   A37        1.91063   0.00406   0.00000   0.00434   0.00432   1.91495
   A38        1.91063  -0.00782   0.00000  -0.00836  -0.00842   1.90222
   A39        1.91063  -0.00809   0.00000  -0.00923  -0.00925   1.90138
   A40        1.91063  -0.00554   0.00000  -0.00612  -0.00614   1.90450
   A41        1.91063   0.00578   0.00000   0.00640   0.00636   1.91700
   A42        1.91063   0.01112   0.00000   0.01247   0.01243   1.92306
   A43        1.91063   0.00476   0.00000   0.00508   0.00505   1.91568
   A44        1.91063  -0.00728   0.00000  -0.00766  -0.00772   1.90292
   A45        1.91063  -0.00635   0.00000  -0.00737  -0.00738   1.90325
   A46        1.91063  -0.00803   0.00000  -0.00891  -0.00894   1.90169
   A47        1.91063   0.00528   0.00000   0.00581   0.00580   1.91644
   A48        1.91063   0.00332   0.00000   0.00372   0.00372   1.91435
   A49        1.91063  -0.00049   0.00000  -0.00056  -0.00056   1.91007
   A50        1.91063  -0.00415   0.00000  -0.00454  -0.00456   1.90608
   A51        1.91063  -0.00269   0.00000  -0.00307  -0.00307   1.90756
   A52        1.91063  -0.00127   0.00000  -0.00136  -0.00136   1.90927
    D1        0.00056   0.00024   0.00000   0.00042   0.00042   0.00098
    D2        3.14078   0.00010   0.00000   0.00017   0.00017   3.14095
    D3       -3.14112   0.00031   0.00000   0.00054   0.00054  -3.14058
    D4       -0.00091   0.00017   0.00000   0.00029   0.00029  -0.00062
    D5        0.00026   0.00018   0.00000   0.00032   0.00032   0.00058
    D6        3.14140  -0.00029   0.00000  -0.00051  -0.00051   3.14089
    D7       -3.14124   0.00011   0.00000   0.00020   0.00020  -3.14104
    D8       -0.00010  -0.00036   0.00000  -0.00063  -0.00063  -0.00073
    D9       -0.00099  -0.00024   0.00000  -0.00042  -0.00042  -0.00141
   D10        3.14093   0.00004   0.00000   0.00007   0.00007   3.14099
   D11       -3.14120  -0.00010   0.00000  -0.00017  -0.00017  -3.14138
   D12        0.00072   0.00018   0.00000   0.00031   0.00031   0.00103
   D13        0.00060  -0.00018   0.00000  -0.00031  -0.00031   0.00028
   D14       -3.14153   0.00052   0.00000   0.00090   0.00090  -3.14063
   D15       -3.14132  -0.00046   0.00000  -0.00080  -0.00080   3.14106
   D16       -0.00026   0.00024   0.00000   0.00041   0.00042   0.00015
   D17        0.00023   0.00061   0.00000   0.00106   0.00106   0.00129
   D18       -3.14158   0.00144   0.00000   0.00251   0.00250  -3.13908
   D19       -3.14083  -0.00009   0.00000  -0.00016  -0.00016  -3.14099
   D20        0.00054   0.00074   0.00000   0.00129   0.00129   0.00183
   D21       -0.00066  -0.00060   0.00000  -0.00106  -0.00105  -0.00171
   D22        3.14138  -0.00014   0.00000  -0.00023  -0.00023   3.14115
   D23        3.14116  -0.00144   0.00000  -0.00251  -0.00250   3.13865
   D24        0.00001  -0.00098   0.00000  -0.00168  -0.00168  -0.00167
   D25        0.00000  -0.00263   0.00000  -0.00490  -0.00482  -0.00482
   D26        3.14159  -0.00097   0.00000  -0.00193  -0.00200   3.13959
   D27        3.14114  -0.00310   0.00000  -0.00573  -0.00566   3.13549
   D28       -0.00045  -0.00144   0.00000  -0.00276  -0.00284  -0.00328
   D29        0.00005  -0.00160   0.00000  -0.00288  -0.00285  -0.00279
   D30       -3.14154  -0.00325   0.00000  -0.00583  -0.00587   3.13578
   D31       -1.11614   0.03836   0.00000   0.05787   0.05910  -1.05703
   D32        3.07265  -0.01711   0.00000  -0.02198  -0.02330   3.04935
   D33        2.02545   0.04002   0.00000   0.06084   0.06217   2.08762
   D34       -0.06894  -0.01545   0.00000  -0.01901  -0.02024  -0.08918
   D35        0.00000   0.02763   0.00000   0.03905   0.03961   0.03961
   D36       -3.14159   0.02672   0.00000   0.03733   0.03782  -3.10377
   D37       -2.09439  -0.03244   0.00000  -0.04810  -0.04859  -2.14299
   D38        1.04720  -0.03336   0.00000  -0.04982  -0.05038   0.99682
   D39       -1.63817  -0.00049   0.00000  -0.00050  -0.00050  -1.63866
   D40        0.45623   0.00483   0.00000   0.00743   0.00740   0.46363
   D41        2.55062   0.00165   0.00000   0.00433   0.00429   2.55491
   D42        1.50343  -0.00141   0.00000  -0.00222  -0.00216   1.50126
   D43       -2.68536   0.00392   0.00000   0.00572   0.00573  -2.67963
   D44       -0.59097   0.00074   0.00000   0.00262   0.00262  -0.58835
   D45        0.11252   0.00405   0.00000   0.00607   0.00605   0.11857
   D46        2.20692   0.00512   0.00000   0.00769   0.00768   2.21460
   D47       -1.98187   0.00514   0.00000   0.00771   0.00770  -1.97417
   D48       -1.98187  -0.00364   0.00000  -0.00448  -0.00447  -1.98635
   D49        0.11252  -0.00257   0.00000  -0.00286  -0.00284   0.10969
   D50        2.20692  -0.00255   0.00000  -0.00284  -0.00282   2.20409
   D51        2.20692  -0.00154   0.00000  -0.00291  -0.00292   2.20400
   D52       -1.98187  -0.00047   0.00000  -0.00129  -0.00128  -1.98315
   D53        0.11252  -0.00045   0.00000  -0.00126  -0.00127   0.11126
   D54       -2.46787  -0.00223   0.00000  -0.00433  -0.00436  -2.47223
   D55       -0.37347  -0.00079   0.00000  -0.00216  -0.00218  -0.37565
   D56        1.72092  -0.00090   0.00000  -0.00232  -0.00234   1.71858
   D57       -0.37347  -0.00373   0.00000  -0.00525  -0.00523  -0.37870
   D58        1.72092  -0.00229   0.00000  -0.00308  -0.00305   1.71788
   D59       -2.46787  -0.00240   0.00000  -0.00324  -0.00321  -2.47108
   D60        1.72092  -0.00072   0.00000  -0.00196  -0.00197   1.71895
   D61       -2.46787   0.00072   0.00000   0.00021   0.00022  -2.46765
   D62       -0.37347   0.00061   0.00000   0.00005   0.00005  -0.37342
   D63       -1.13062  -0.00423   0.00000  -0.00559  -0.00561  -1.13622
   D64        0.96378  -0.00405   0.00000  -0.00532  -0.00533   0.95845
   D65        3.05817  -0.00387   0.00000  -0.00505  -0.00506   3.05311
   D66        3.05817   0.00419   0.00000   0.00609   0.00609   3.06427
   D67       -1.13062   0.00437   0.00000   0.00636   0.00637  -1.12424
   D68        0.96378   0.00455   0.00000   0.00663   0.00664   0.97042
   D69        0.96378   0.00062   0.00000   0.00080   0.00080   0.96458
   D70        3.05817   0.00080   0.00000   0.00107   0.00108   3.05925
   D71       -1.13062   0.00098   0.00000   0.00134   0.00135  -1.12927
         Item               Value     Threshold  Converged?
 Maximum Force            0.224962     0.000450     NO 
 RMS     Force            0.025947     0.000300     NO 
 Maximum Displacement     0.750942     0.001800     NO 
 RMS     Displacement     0.232733     0.001200     NO 
 Predicted change in Energy=-8.412290D-02
 GradGradGradGradGradGradGradGradGradGradGradGradGradGradGradGradGradGrad

                          Input orientation:                          
 ---------------------------------------------------------------------
 Center     Atomic      Atomic             Coordinates (Angstroms)
 Number     Number       Type             X           Y           Z
 ---------------------------------------------------------------------
      1          6           0        5.917692   -1.910011    0.004997
      2          6           0        7.299392   -1.743901   -0.005406
      3          6           0        7.846049   -0.464690   -0.010426
      4          6           0        7.009755    0.648803   -0.006740
      5          6           0        5.628597    0.483551    0.002293
      6          6           0        5.077075   -0.796886    0.009235
      7          1           0        5.497752   -2.916886    0.009829
      8          1           0        7.953623   -2.617516   -0.008082
      9          1           0        8.929647   -0.334021   -0.018017
     10          1           0        7.438251    1.652533   -0.011589
     11          1           0        4.975966    1.357331    0.002787
     12          6           0        3.559064   -0.968231    0.019722
     13          8           0        3.068579   -2.288466    0.018688
     14          1           0        3.796459   -2.909681    0.008690
     15          6           0        2.774428    0.158902    0.025985
     16          1           0        3.001356    0.718397    0.912921
     17          6           0        1.232339    0.072598   -0.084887
     18          8           0        0.593800   -0.993078   -0.145042
     19          6           0        0.432779    1.387683   -0.121133
     20          6           0       -0.016847    1.743449    1.317655
     21          1           0        0.426349    1.065087    2.021376
     22          1           0        0.286297    2.743224    1.558458
     23          1           0       -1.084478    1.672798    1.391019
     24          6           0        1.310722    2.526789   -0.692873
     25          1           0        1.114728    3.438290   -0.162879
     26          1           0        2.348241    2.280093   -0.591679
     27          1           0        1.086450    2.670856   -1.732104
     28          6           0       -0.805324    1.204111   -1.019352
     29          1           0       -0.497096    1.033911   -2.032940
     30          1           0       -1.377263    0.363591   -0.678658
     31          1           0       -1.411876    2.088788   -0.976842
 ---------------------------------------------------------------------
                    Distance matrix (angstroms):
                    1          2          3          4          5
     1  C    0.000000
     2  C    1.391687   0.000000
     3  C    2.409928   1.391130   0.000000
     4  C    2.782133   2.410171   1.392576   0.000000
     5  C    2.410959   2.784449   2.411724   1.391038   0.000000
     6  C    1.394885   2.415729   2.788900   2.413612   1.394182
     7  H    1.090949   2.149890   3.395317   3.873056   3.402962
     8  H    2.155400   1.091434   2.155514   3.399960   3.875883
     9  H    3.399434   2.155379   1.091475   2.156863   3.400849
    10  H    3.873511   3.399277   2.156138   1.091378   2.154428
    11  H    3.400350   3.875051   3.399605   2.153695   1.090605
    12  C    2.539743   3.819993   4.316561   3.810874   2.528031
    13  O    2.874171   4.265783   5.113827   4.915390   3.773332
    14  H    2.344992   3.691853   4.730489   4.794613   3.856267
    15  C    3.763104   4.908864   5.109945   4.263692   2.872671
    16  H    4.029625   5.037792   5.071816   4.113135   2.790482
    17  C    5.088355   6.333649   6.635916   5.806604   4.416284
    18  O    5.404360   6.748940   7.272719   6.624151   5.248936
    19  C    6.401170   7.547886   7.641997   6.619339   5.275341
    20  C    7.091516   8.212153   8.274347   7.233630   5.931995
    21  H    6.562914   7.696555   7.843492   6.901288   5.610549
    22  H    7.468497   8.471331   8.360739   7.213967   6.005659
    23  H    7.986737   9.160409   9.289091   8.277614   6.957603
    24  C    6.434003   7.387528   7.219777   6.039585   4.827227
    25  H    7.190338   8.070314   7.782491   6.523569   5.397478
    26  H    5.536603   6.407038   6.172324   4.973226   3.786965
    27  H    6.880608   7.814872   7.647745   6.492390   5.331373
    28  C    7.479705   8.683621   8.868432   7.899950   6.554258
    29  H    7.346385   8.521289   8.714611   7.785024   6.478363
    30  H    7.671572   8.954279   9.284506   8.418722   7.039897
    31  H    8.406959   9.566576   9.652118   8.598750   7.287232
                    6          7          8          9         10
     6  C    0.000000
     7  H    2.161335   0.000000
     8  H    3.404339   2.474115   0.000000
     9  H    3.880374   4.295332   2.483359   0.000000
    10  H    3.402240   4.964432   4.301039   2.484089   0.000000
    11  H    2.156599   4.305955   4.966485   4.300315   2.479959
    12  C    1.527686   2.748794   4.693939   5.408032   4.681610
[...]
 Alpha virt. eigenvalues --    1.08251   1.10623   1.11631   1.12198   1.15116
 Alpha virt. eigenvalues --    1.15851   1.16811   1.17413   1.19114   1.21404
 Alpha virt. eigenvalues --    1.23888   1.25027   1.26295   1.28679   1.32071
 Alpha virt. eigenvalues --    1.36752   1.44017   1.46176   1.50632   1.56036
 Alpha virt. eigenvalues --    1.92284   1.96977   2.49646   2.54891   2.59567
 Alpha virt. eigenvalues --    2.60319   2.60786   2.61702   2.62455   2.63184
 Alpha virt. eigenvalues --    2.65791   2.66310   2.68004   2.68638   2.69036
 Alpha virt. eigenvalues --    2.69589   2.73226   2.85332   2.91745   2.94284
 Alpha virt. eigenvalues --    2.95042   2.97679   3.02009   3.03668   3.05357
 Alpha virt. eigenvalues --    3.11564   3.12084   3.18094   3.19872   3.20530
 Alpha virt. eigenvalues --    3.21781   3.24187   3.27790   3.28661   3.29491
 Alpha virt. eigenvalues --    3.31173   3.33184   3.34183   3.35559   3.37023
 Alpha virt. eigenvalues --    3.40010   3.42356   3.43731   3.47517   3.49143
 Alpha virt. eigenvalues --    3.51871   3.53970   3.54905   3.57036   3.59035
 Alpha virt. eigenvalues --    3.60474   3.63467   3.66778   3.69708   3.71934
 Alpha virt. eigenvalues --    3.75021   3.86710   5.38849   5.44170   5.47381
 Alpha virt. eigenvalues --    5.53817   5.60008   5.71024  24.25244  24.41930
 Alpha virt. eigenvalues --   24.48921  24.51780  24.55303  24.63181  24.67542
 Alpha virt. eigenvalues --   24.72263  24.75203  24.78016  24.79506  24.86687
 Alpha virt. eigenvalues --   25.03636  51.56348  51.63653
          Condensed to atoms (all electrons):
              1          2          3          4          5          6
     1  C    5.133566   0.465871  -0.091585  -0.029592  -0.069204   0.430193
     2  C    0.465871   5.046729   0.498499  -0.073251  -0.034686  -0.074271
     3  C   -0.091585   0.498499   4.999749   0.493768  -0.087779  -0.011322
     4  C   -0.029592  -0.073251   0.493768   5.060780   0.456358  -0.066987
     5  C   -0.069204  -0.034686  -0.087779   0.456358   5.050545   0.438275
     6  C    0.430193  -0.074271  -0.011322  -0.066987   0.438275   5.540344
     7  H    0.395526  -0.025806   0.004466  -0.000005   0.004498  -0.052059
     8  H   -0.038914   0.399363  -0.038930   0.005921  -0.000299   0.006064
     9  H    0.007795  -0.041994   0.401078  -0.041938   0.007645  -0.001613
    10  H   -0.000405   0.006040  -0.039694   0.399634  -0.038526   0.006401
    11  H    0.005500  -0.000315   0.004722  -0.032027   0.395042  -0.045655
    12  C   -0.060528   0.004108   0.002138   0.006109  -0.027599   0.225704
    13  O    0.011582   0.000578   0.000048  -0.000279   0.004505  -0.119073
    14  H   -0.001956  -0.000771  -0.000019  -0.000195   0.000954   0.009207
    15  C   -0.002288  -0.000811   0.000118   0.000538   0.011631  -0.117939
    16  H    0.000102  -0.000084   0.000035  -0.000373   0.001644  -0.001141
    17  C   -0.000360   0.000010  -0.000001  -0.000010   0.000047   0.006732
    18  O    0.000002   0.000000   0.000000   0.000000   0.000006   0.000168
    19  C    0.000008   0.000000   0.000000   0.000000   0.000056  -0.000836
    20  C   -0.000001   0.000000   0.000000   0.000000   0.000005  -0.000079
    21  H   -0.000001   0.000001   0.000000   0.000000  -0.000010   0.000034
    22  H    0.000000   0.000000   0.000000   0.000000  -0.000001   0.000003
    23  H   -0.000002   0.000000   0.000000   0.000000  -0.000003   0.000013
    24  C    0.000000   0.000000   0.000000   0.000000  -0.000018  -0.000028
    25  H    0.000000   0.000000   0.000000   0.000000   0.000001  -0.000001
    26  H    0.000002   0.000000   0.000000   0.000005   0.000117  -0.000055
    27  H    0.000000   0.000000   0.000000   0.000000   0.000002  -0.000007
    28  C    0.000000   0.000000   0.000000   0.000000   0.000000   0.000001
    29  H    0.000000   0.000000   0.000000   0.000000   0.000000   0.000000
    30  H    0.000000   0.000000   0.000000   0.000000   0.000000  -0.000001
    31  H    0.000000   0.000000   0.000000   0.000000   0.000000   0.000000
              7          8          9         10         11         12
     1  C    0.395526  -0.038914   0.007795  -0.000405   0.005500  -0.060528
     2  C   -0.025806   0.399363  -0.041994   0.006040  -0.000315   0.004108
     3  C    0.004466  -0.038930   0.401078  -0.039694   0.004722   0.002138
     4  C   -0.000005   0.005921  -0.041938   0.399634  -0.032027   0.006109
     5  C    0.004498  -0.000299   0.007645  -0.038526   0.395042  -0.027599
     6  C   -0.052059   0.006064  -0.001613   0.006401  -0.045655   0.225704
     7  H    0.472255  -0.003788  -0.000152   0.000021  -0.000198  -0.000321
     8  H   -0.003788   0.502865  -0.004360  -0.000208   0.000020  -0.000348
     9  H   -0.000152  -0.004360   0.504573  -0.004406  -0.000150  -0.000031
    10  H    0.000021  -0.000208  -0.004406   0.503725  -0.004003  -0.000328
    11  H   -0.000198   0.000020  -0.000150  -0.004003   0.478033  -0.000233
    12  C   -0.000321  -0.000348  -0.000031  -0.000328  -0.000233   4.855264
    13  O    0.008227  -0.000012   0.000001   0.000001   0.000072   0.269388
    14  H    0.000507   0.000003   0.000000   0.000001  -0.000040  -0.038277
    15  C    0.000488   0.000010   0.000000   0.000012   0.004804   0.319056
    16  H   -0.000031   0.000001  -0.000001   0.000011   0.001242  -0.047130
    17  C   -0.000059   0.000000   0.000000   0.000000  -0.000205  -0.018648
    18  O    0.000002   0.000000   0.000000   0.000000  -0.000008   0.017452
    19  C    0.000001   0.000000   0.000000   0.000000   0.000007   0.006838
    20  C   -0.000001   0.000000   0.000000   0.000000  -0.000009   0.000185
    21  H    0.000000   0.000000   0.000000   0.000000  -0.000015   0.000673
    22  H    0.000000   0.000000   0.000000   0.000000   0.000000   0.000060
    23  H   -0.000001   0.000000   0.000000   0.000000  -0.000001   0.000050
    24  C    0.000000   0.000000   0.000000   0.000000   0.000068  -0.000407
    25  H    0.000000   0.000000   0.000000   0.000000   0.000002   0.000014
    26  H    0.000000   0.000000   0.000000  -0.000001   0.000217   0.000521
    27  H    0.000000   0.000000   0.000000   0.000000   0.000008  -0.000112
    28  C    0.000000   0.000000   0.000000   0.000000   0.000000  -0.000464
    29  H    0.000000   0.000000   0.000000   0.000000   0.000000  -0.000055
    30  H    0.000000   0.000000   0.000000   0.000000   0.000000  -0.000070
    31  H    0.000000   0.000000   0.000000   0.000000   0.000000   0.000016
             13         14         15         16         17         18
     1  C    0.011582  -0.001956  -0.002288   0.000102  -0.000360   0.000002
     2  C    0.000578  -0.000771  -0.000811  -0.000084   0.000010   0.000000
     3  C    0.000048  -0.000019   0.000118   0.000035  -0.000001   0.000000
     4  C   -0.000279  -0.000195   0.000538  -0.000373  -0.000010   0.000000
     5  C    0.004505   0.000954   0.011631   0.001644   0.000047   0.000006
     6  C   -0.119073   0.009207  -0.117939  -0.001141   0.006732   0.000168
     7  H    0.008227   0.000507   0.000488  -0.000031  -0.000059   0.000002
     8  H   -0.000012   0.000003   0.000010   0.000001   0.000000   0.000000
     9  H    0.000001   0.000000   0.000000  -0.000001   0.000000   0.000000
    10  H    0.000001   0.000001   0.000012   0.000011   0.000000   0.000000
    11  H    0.000072  -0.000040   0.004804   0.001242  -0.000205  -0.000008
    12  C    0.269388  -0.038277   0.319056  -0.047130  -0.018648   0.017452
    13  O    8.381926   0.261697  -0.113911   0.004393   0.003916  -0.005914
    14  H    0.261697   0.350088   0.009427  -0.000159  -0.000214   0.000435
    15  C   -0.113911   0.009427   6.091995   0.385499   0.064310  -0.156970
    16  H    0.004393  -0.000159   0.385499   0.469936  -0.025563   0.002559
    17  C    0.003916  -0.000214   0.064310  -0.025563   5.025150   0.625752
    18  O   -0.005914   0.000435  -0.156970   0.002559   0.625752   8.108323
    19  C   -0.000123   0.000036  -0.201902   0.008720   0.043494  -0.137262
    20  C    0.000010  -0.000002   0.009212  -0.001552  -0.095509   0.002902
    21  H   -0.000009   0.000001   0.003444   0.000655  -0.007180  -0.000026
    22  H    0.000000   0.000000  -0.000751  -0.000003   0.008132  -0.000276
    23  H   -0.000002   0.000000  -0.000630   0.000074  -0.001574   0.000697
    24  C   -0.000005  -0.000002   0.011214  -0.001696  -0.099717   0.002478
    25  H    0.000000   0.000000  -0.000675   0.000038   0.007720  -0.000290
    26  H   -0.000007   0.000000   0.004522   0.001229  -0.007477  -0.000096
    27  H    0.000002  -0.000001  -0.000728   0.000093  -0.000921   0.001100
    28  C    0.000004  -0.000001   0.013388   0.000024  -0.084346   0.014826
    29  H    0.000002   0.000000   0.000686  -0.000031  -0.005527   0.004576
    30  H   -0.000003  -0.000001   0.000488  -0.000040  -0.005310   0.003608
    31  H    0.000000   0.000000  -0.000431   0.000005   0.013206   0.000209
             19         20         21         22         23         24
     1  C    0.000008  -0.000001  -0.000001   0.000000  -0.000002   0.000000
     2  C    0.000000   0.000000   0.000001   0.000000   0.000000   0.000000
     3  C    0.000000   0.000000   0.000000   0.000000   0.000000   0.000000
     4  C    0.000000   0.000000   0.000000   0.000000   0.000000   0.000000
     5  C    0.000056   0.000005  -0.000010  -0.000001  -0.000003  -0.000018
     6  C   -0.000836  -0.000079   0.000034   0.000003   0.000013  -0.000028
     7  H    0.000001  -0.000001   0.000000   0.000000  -0.000001   0.000000
     8  H    0.000000   0.000000   0.000000   0.000000   0.000000   0.000000
     9  H    0.000000   0.000000   0.000000   0.000000   0.000000   0.000000
    10  H    0.000000   0.000000   0.000000   0.000000   0.000000   0.000000
    11  H    0.000007  -0.000009  -0.000015   0.000000  -0.000001   0.000068
    12  C    0.006838   0.000185   0.000673   0.000060   0.000050  -0.000407
    13  O   -0.000123   0.000010  -0.000009   0.000000  -0.000002  -0.000005
    14  H    0.000036  -0.000002   0.000001   0.000000   0.000000  -0.000002
    15  C   -0.201902   0.009212   0.003444  -0.000751  -0.000630   0.011214
    16  H    0.008720  -0.001552   0.000655  -0.000003   0.000074  -0.001696
    17  C    0.043494  -0.095509  -0.007180   0.008132  -0.001574  -0.099717
    18  O   -0.137262   0.002902  -0.000026  -0.000276   0.000697   0.002478
    19  C    6.424145   0.188038  -0.039150  -0.040137  -0.045222   0.196329
    20  C    0.188038   5.407755   0.380749   0.384871   0.387468  -0.104799
    21  H   -0.039150   0.380749   0.541357  -0.027971  -0.026602  -0.003218
    22  H   -0.040137   0.384871  -0.027971   0.534278  -0.028033  -0.005634
    23  H   -0.045222   0.387468  -0.026602  -0.028033   0.524197   0.008361
    24  C    0.196329  -0.104799  -0.003218  -0.005634   0.008361   5.409188
    25  H   -0.039945  -0.005564  -0.000105   0.003722  -0.000212   0.386834
    26  H   -0.040455  -0.003220   0.001998  -0.000156  -0.000173   0.379761
    27  H   -0.045868   0.008441  -0.000177  -0.000201  -0.000299   0.386326
    28  C    0.196810  -0.104178   0.007365  -0.004192  -0.002321  -0.103988
    29  H   -0.039914   0.008164  -0.000312  -0.000095  -0.000188  -0.003386
    30  H   -0.039962  -0.003490  -0.000088  -0.000335   0.002935   0.008210
    31  H   -0.056681  -0.006043  -0.000077   0.002551  -0.000388  -0.006106
             25         26         27         28         29         30
     1  C    0.000000   0.000002   0.000000   0.000000   0.000000   0.000000
     2  C    0.000000   0.000000   0.000000   0.000000   0.000000   0.000000
     3  C    0.000000   0.000000   0.000000   0.000000   0.000000   0.000000
     4  C    0.000000   0.000005   0.000000   0.000000   0.000000   0.000000
     5  C    0.000001   0.000117   0.000002   0.000000   0.000000   0.000000
     6  C   -0.000001  -0.000055  -0.000007   0.000001   0.000000  -0.000001
     7  H    0.000000   0.000000   0.000000   0.000000   0.000000   0.000000
     8  H    0.000000   0.000000   0.000000   0.000000   0.000000   0.000000
     9  H    0.000000   0.000000   0.000000   0.000000   0.000000   0.000000
    10  H    0.000000  -0.000001   0.000000   0.000000   0.000000   0.000000
    11  H    0.000002   0.000217   0.000008   0.000000   0.000000   0.000000
    12  C    0.000014   0.000521  -0.000112  -0.000464  -0.000055  -0.000070
    13  O    0.000000  -0.000007   0.000002   0.000004   0.000002  -0.000003
    14  H    0.000000   0.000000  -0.000001  -0.000001   0.000000  -0.000001
    15  C   -0.000675   0.004522  -0.000728   0.013388   0.000686   0.000488
    16  H    0.000038   0.001229   0.000093   0.000024  -0.000031  -0.000040
    17  C    0.007720  -0.007477  -0.000921  -0.084346  -0.005527  -0.005310
    18  O   -0.000290  -0.000096   0.001100   0.014826   0.004576   0.003608
    19  C   -0.039945  -0.040455  -0.045868   0.196810  -0.039914  -0.039962
    20  C   -0.005564  -0.003220   0.008441  -0.104178   0.008164  -0.003490
    21  H   -0.000105   0.001998  -0.000177   0.007365  -0.000312  -0.000088
    22  H    0.003722  -0.000156  -0.000201  -0.004192  -0.000095  -0.000335
    23  H   -0.000212  -0.000173  -0.000299  -0.002321  -0.000188   0.002935
    24  C    0.386834   0.379761   0.386326  -0.103988  -0.003386   0.008210
    25  H    0.528377  -0.027656  -0.027606  -0.004048  -0.000330  -0.000062
    26  H   -0.027656   0.549902  -0.027371   0.007464  -0.000098  -0.000311
    27  H   -0.027606  -0.027371   0.524983  -0.002026   0.002952  -0.000210
    28  C   -0.004048   0.007464  -0.002026   5.320306   0.390311   0.390889
    29  H   -0.000330  -0.000098   0.002952   0.390311   0.514114  -0.023408
    30  H   -0.000062  -0.000311  -0.000210   0.390889  -0.023408   0.515331
    31  H    0.002500  -0.000112  -0.000411   0.390903  -0.031141  -0.030777
             31
     1  C    0.000000
     2  C    0.000000
     3  C    0.000000
     4  C    0.000000
     5  C    0.000000
     6  C    0.000000
     7  H    0.000000
     8  H    0.000000
     9  H    0.000000
    10  H    0.000000
    11  H    0.000000
    12  C    0.000016
    13  O    0.000000
    14  H    0.000000
    15  C   -0.000431
    16  H    0.000005
    17  C    0.013206
    18  O    0.000209
    19  C   -0.056681
    20  C   -0.006043
    21  H   -0.000077
    22  H    0.002551
    23  H   -0.000388
    24  C   -0.006106
    25  H    0.002500
    26  H   -0.000112
    27  H   -0.000411
    28  C    0.390903
    29  H   -0.031141
    30  H   -0.030777
    31  H    0.568427
 Mulliken atomic charges:
              1
     1  C   -0.155311
     2  C   -0.169210
     3  C   -0.135291
     4  C   -0.178457
     5  C   -0.113207
     6  C   -0.172074
     7  H    0.196427
     8  H    0.172613
     9  H    0.173555
    10  H    0.171724
    11  H    0.193122
    12  C    0.486979
    13  O   -0.707009
    14  H    0.409283
    15  C   -0.333807
    16  H    0.201544
    17  C    0.554152
    18  O   -0.484255
    19  C   -0.337026
    20  C   -0.453353
    21  H    0.168665
    22  H    0.174168
    23  H    0.181855
    24  C   -0.459762
    25  H    0.177288
    26  H    0.161449
    27  H    0.182030
    28  C   -0.426727
    29  H    0.183683
    30  H    0.182606
    31  H    0.154348
 Sum of Mulliken atomic charges =   0.00000
 Mulliken charges with hydrogens summed into heavy atoms:
              1
     1  C    0.041116
     2  C    0.003403
     3  C    0.038264
     4  C   -0.006734
     5  C    0.079914
     6  C   -0.172074
    12  C    0.486979
    13  O   -0.297726
    15  C   -0.132263
    17  C    0.554152
    18  O   -0.484255
    19  C   -0.337026
    20  C    0.071335
    24  C    0.061005
    28  C    0.093910
 Sum of Mulliken charges with hydrogens summed into heavy atoms =   0.00000
 Electronic spatial extent (au):  <R**2>=           4364.5423
 Charge=              0.0000 electrons
 Dipole moment (field-independent basis, Debye):
    X=             -4.3499    Y=             -3.2582    Z=              0.7386  Tot=              5.4848
 Quadrupole moment (field-independent basis, Debye-Ang):
   XX=            -80.5429   YY=            -93.0805   ZZ=            -92.8937
   XY=             -9.8868   XZ=              2.6999   YZ=              4.4241
 Traceless Quadrupole moment (field-independent basis, Debye-Ang):
   XX=              8.2962   YY=             -4.2415   ZZ=             -4.0547
   XY=             -9.8868   XZ=              2.6999   YZ=              4.4241
 Octapole moment (field-independent basis, Debye-Ang**2):
  XXX=            -48.9907  YYY=              5.7002  ZZZ=             -5.4758  XYY=            -30.1722
  XXY=            -15.7799  XXZ=             18.3360  XZZ=              4.9456  YZZ=              6.8130
  YYZ=             -3.3101  XYZ=             -0.9706
 Hexadecapole moment (field-independent basis, Debye-Ang**3):
 XXXX=          -4534.7358 YYYY=           -793.6313 ZZZZ=           -399.2206 XXXY=             13.7477
 XXXZ=            -64.6616 YYYX=            -38.8883 YYYZ=              1.4225 ZZZX=             -8.3890
 ZZZY=             -0.7098 XXYY=           -907.6019 XXZZ=           -887.0390 YYZZ=           -192.2280
 XXYZ=             44.9722 YYXZ=             33.0303 ZZXY=            -11.2988
 N-N= 9.502532749813D+02 E-N=-3.422653543261D+03  KE= 6.516138663465D+02
 1|1|UNPC-DESKTOP-K2VF0AK|FOpt|RHF|6-311G|C13H16O2|MELIH|27-Nov-2024|0|
 |# opt hf/6-311g geom=connectivity||Title Card Required||0,1|C,5.67279
 43028,-1.7815732144,0.5781882366|C,7.0197702695,-1.6965212517,0.890032
 7241|C,7.7509568212,-0.5779639315,0.5187611882|C,7.1284368433,0.455518
 7976,-0.1654114393|C,5.7807083777,0.3731520671,-0.4764061546|C,5.03795
 24198,-0.7440503826,-0.103988614|H,5.1098355151,-2.6383345059,0.887186
 0887|H,7.492392457,-2.4944134358,1.424442351|H,8.7924161376,-0.5136788
 574,0.7572222635|H,7.6899392206,1.3167001283,-0.463185727|H,5.30985259
 99,1.1625482284,-1.0237185338|C,3.5932603874,-0.8506544361,-0.42668888
 |O,3.1708966781,-2.0919690874,-0.8054082949|H,3.8428693261,-2.64007159
 47,-1.1844728037|C,2.7379210056,0.1625563547,-0.2894376923|H,3.1361048
 034,1.0575586967,0.1336183915|C,1.3058439823,0.1762312764,-0.636808929
 1|O,0.7832641794,-0.6947671118,-1.314966845|C,0.4726453129,1.360683395
 2,-0.1298297428|C,0.5579607369,1.4343398772,1.408448643|H,1.5658079638
 ,1.612766409,1.7564559869|H,-0.0645751162,2.2427598032,1.76967637|H,0.
 2064300108,0.515127838,1.8587924732|C,1.0041695838,2.6703406807,-0.751
 1465724|H,0.3807490629,3.4985054774,-0.4401795724|H,2.0174322393,2.891
 8768261,-0.4451773015|H,0.9805094339,2.6225484996,-1.8321939208|C,-0.9
 920857497,1.1686476815,-0.5459475891|H,-1.0895170111,1.111516006,-1.61
 94183706|H,-1.3978573117,0.2561105389,-0.1354053151|H,-1.5843788125,2.
 0019244273,-0.1880249385||Version=IA32W-G09RevA.02|State=1-A|HF=-651.1
 822917|RMSD=7.420e-009|RMSF=1.004e-006|Dipole=1.9546714,0.6483067,0.64
 44801|Quadrupole=1.9760064,2.6075687,-4.583575,-7.908597,-3.3459449,-2
 .7963774|PG=C01 [X(C13H16O2)]||@


 IT IS A PROFOUNDLY ERRONEOUS TRUISM ... THAT WE SHOULD CULTIVATE
 THE HABIT OF THINKING OF WHAT WE ARE DOING.
 THE PRECISE OPPOSITE IS THE CASE.
 CIVILIZATION ADVANCES BY EXTENDING THE NUMBER OF IMPORTANT OPERATIONS
 WHICH WE CAN PERFORM WITHOUT THINKING ABOUT THEM.

                                    -- ALFRED NORTH WHITEHEAD
 Job cpu time:  0 days  0 hours 32 minutes 52.0 seconds.
 File lengths (MBytes):  RWF=     42 Int=      0 D2E=      0 Chk=      5 Scr=      1
 Normal termination of Gaussian 09 at Wed Nov 27 21:14:44 2024.
