 Entering Link 1 = C:\G09W\l1.exe PID=      5292.
  
 Copyright (c) 1988,1990,1992,1993,1995,1998,2003,2009, Gaussian, Inc.
                  All Rights Reserved.
  
 This is part of the Gaussian(R) 09 program.  It is based on
 the Gaussian(R) 03 system (copyright 2003, Gaussian, Inc.),
 the Gaussian(R) 98 system (copyright 1998, Gaussian, Inc.),
 the Gaussian(R) 94 system (copyright 1995, Gaussian, Inc.),
 the Gaussian 92(TM) system (copyright 1992, Gaussian, Inc.),
 the Gaussian 90(TM) system (copyright 1990, Gaussian, Inc.),
 the Gaussian 88(TM) system (copyright 1988, Gaussian, Inc.),
 the Gaussian 86(TM) system (copyright 1986, Carnegie Mellon
 University), and the Gaussian 82(TM) system (copyright 1983,
 Carnegie Mellon University). Gaussian is a federally registered
 trademark of Gaussian, Inc.
  
 This software contains proprietary and confidential information,
 including trade secrets, belonging to Gaussian, Inc.
  
 This software is provided under written license and may be
 used, copied, transmitted, or stored only in accord with that
 written license.
  
 The following legend is applicable only to US Government
 contracts under FAR:
  
                    RESTRICTED RIGHTS LEGEND
  
 Use, reproduction and disclosure by the US Government is
 subject to restrictions as set forth in subparagraphs (a)
 and (c) of the Commercial Computer Software - Restricted
 Rights clause in FAR 52.227-19.
  
 Gaussian, Inc.
 340 Quinnipiac St., Bldg. 40, Wallingford CT 06492
  
  
 ---------------------------------------------------------------
 Warning -- This program may not be used in any manner that
 competes with the business of Gaussian, Inc. or will provide
 assistance to any competitor of Gaussian, Inc.  The licensee
 of this program is prohibited from giving any competitor of
 Gaussian, Inc. access to this program.  By using this program,
 the user acknowledges that Gaussian, Inc. is engaged in the
 business of creating and licensing software in the field of
 computational chemistry and represents and warrants to the
 licensee that it is not a competitor of Gaussian, Inc. and that
 it will not use this program in any manner prohibited above.
 ---------------------------------------------------------------
  

 Cite this work as:
 Gaussian 09, Revision A.02,
 M. J. Frisch, G. W. Trucks, H. B. Schlegel, G. E. Scuseria, 
 M. A. Robb, J. R. Cheeseman, G. Scalmani, V. Barone, B. Mennucci, 
 G. A. Petersson, H. Nakatsuji, M. Caricato, X. Li, H. P. Hratchian, 
 A. F. Izmaylov, J. Bloino, G. Zheng, J. L. Sonnenberg, M. Hada, 
 M. Ehara, K. Toyota, R. Fukuda, J. Hasegawa, M. Ishida, T. Nakajima, 
 Y. Honda, O. Kitao, H. Nakai, T. Vreven, J. A. Montgomery, Jr., 
 J. E. Peralta, F. Ogliaro, M. Bearpark, J. J. Heyd, E. Brothers, 
 K. N. Kudin, V. N. Staroverov, R. Kobayashi, J. Normand, 
 K. Raghavachari, A. Rendell, J. C. Burant, S. S. Iyengar, J. Tomasi, 
 M. Cossi, N. Rega, J. M. Millam, M. Klene, J. E. Knox, J. B. Cross, 
 V. Bakken, C. Adamo, J. Jaramillo, R. Gomperts, R. E. Stratmann, 
 O. Yazyev, A. J. Austin, R. Cammi, C. Pomelli, J. W. Ochterski, 
 R. L. Martin, K. Morokuma, V. G. Zakrzewski, G. A. Voth, 
 P. Salvador, J. J. Dannenberg, S. Dapprich, A. D. Daniels, 
 O. Farkas, J. B. Foresman, J. V. Ortiz, J. Cioslowski, 
 and D. J. Fox, Gaussian, Inc., Wallingford CT, 2009.
 
 ******************************************
 Gaussian 09:  IA32W-G09RevA.02 11-Jun-2009
                25-Nov-2024 
 ******************************************
 %chk=C:\G09W\Midterm1\E8energy.chk
 -----------------------------
 # hf/6-311g geom=connectivity
 -----------------------------
 1/38=1,57=2/1;
 2/12=2,17=6,18=5,40=1/2;
 3/5=4,6=6,11=9,16=1,25=1,30=1/1,2,3;
 4//1;
 5/5=2,38=5/2;
 6/7=2,8=2,9=2,10=2,28=1/1;
 99/5=1,9=1/99;
 -------------------
 Title Card Required
 -------------------
 Symbolic Z-matrix:
 Charge =  0 Multiplicity = 1
 C                    -4.54084   0.9211   -1.74422 
 C                    -3.78193  -0.24899  -1.88156 
 C                    -2.60067  -0.23357  -2.63541 
 C                    -2.17831   0.95194  -3.25193 
 C                    -2.93722   2.12204  -3.1146 
 C                    -4.11849   2.10662  -2.36074 
 H                    -5.44276   0.90933  -1.16864 
 H                    -1.27639   0.96372  -3.82752 
 H                    -2.61474   3.0272   -3.58532 
 H                    -4.69793   3.00001  -2.25588 
 H                    -2.02123  -1.12696  -2.74027 
 C                    -4.24606  -1.55175  -1.20406 
 O                    -3.80351  -2.81432  -1.70901 
 H                    -4.38506  -3.50852  -1.39045 
 C                    -5.07246  -1.50576  -0.13098 
 H                    -5.93728  -0.92341  -0.37151 
 C                    -5.50459  -2.93507   0.24577 
 O                    -6.59162  -3.12998   0.84906 
 C                    -4.60336  -4.12996  -0.11701 
 C                    -4.93518  -4.60904  -1.54249 
 H                    -4.22062  -5.34504  -1.84679 
 H                    -5.91575  -5.03706  -1.5557 
 H                    -4.89972  -3.77788  -2.2154 
 C                    -4.84693  -5.27801   0.8801 
 H                    -3.91832  -5.7614    1.10124 
 H                    -5.26758  -4.88416   1.78168 
 H                    -5.52415  -5.98615   0.4502 
 C                    -3.12672  -3.69772  -0.05144 
 H                    -3.06244  -2.70718   0.34806 
 H                    -2.58528  -4.3722    0.5785 
 H                    -2.70645  -3.71345  -1.03533 
 
                          Input orientation:                          
 ---------------------------------------------------------------------
 Center     Atomic      Atomic             Coordinates (Angstroms)
 Number     Number       Type             X           Y           Z
 ---------------------------------------------------------------------
      1          6           0       -4.540842    0.921104   -1.744221
      2          6           0       -3.781933   -0.248989   -1.881557
      3          6           0       -2.600669   -0.233570   -2.635412
      4          6           0       -2.178312    0.951943   -3.251931
      5          6           0       -2.937221    2.122037   -3.114596
      6          6           0       -4.118486    2.106617   -2.360742
      7          1           0       -5.442764    0.909331   -1.168636
      8          1           0       -1.276390    0.963717   -3.827516
      9          1           0       -2.614744    3.027202   -3.585324
     10          1           0       -4.697931    3.000009   -2.255885
     11          1           0       -2.021225   -1.126962   -2.740272
     12          6           0       -4.246061   -1.551751   -1.204063
     13          8           0       -3.803507   -2.814316   -1.709012
     14          1           0       -4.385055   -3.508519   -1.390446
     15          6           0       -5.072460   -1.505764   -0.130975
     16          1           0       -5.937277   -0.923410   -0.371505
     17          6           0       -5.504593   -2.935072    0.245772
     18          8           0       -6.591620   -3.129978    0.849060
     19          6           0       -4.603356   -4.129960   -0.117014
     20          6           0       -4.935182   -4.609039   -1.542488
     21          1           0       -4.220620   -5.345044   -1.846787
     22          1           0       -5.915755   -5.037059   -1.555698
     23          1           0       -4.899723   -3.777879   -2.215403
     24          6           0       -4.846934   -5.278013    0.880104
     25          1           0       -3.918316   -5.761404    1.101241
     26          1           0       -5.267579   -4.884156    1.781678
     27          1           0       -5.524147   -5.986153    0.450197
     28          6           0       -3.126716   -3.697717   -0.051444
     29          1           0       -3.062437   -2.707178    0.348056
     30          1           0       -2.585284   -4.372197    0.578499
     31          1           0       -2.706450   -3.713452   -1.035329
 ---------------------------------------------------------------------
                    Distance matrix (angstroms):
                    1          2          3          4          5
     1  C    0.000000
     2  C    1.401400   0.000000
     3  C    2.427296   1.401400   0.000000
     4  C    2.802800   2.427296   1.401400   0.000000
     5  C    2.427296   2.802800   2.427296   1.401400   0.000000
     6  C    1.401400   2.427296   2.802800   2.427296   1.401400
     7  H    1.070000   2.146700   3.396345   3.872800   3.396345
     8  H    3.872800   3.396345   2.146700   1.070000   2.146700
     9  H    3.396345   3.872800   3.396345   2.146700   1.070000
    10  H    2.146700   3.396345   3.872800   3.396345   2.146700
    11  H    3.396345   2.146700   1.070000   2.146700   3.396345
    12  C    2.548270   1.540000   2.548270   3.838989   4.342800
    13  O    3.807659   2.571214   2.994209   4.382530   5.205161
    14  H    4.446458   3.351042   3.931828   5.313244   6.063998
    15  C    2.962240   2.511867   3.741715   4.914955   5.159668
    16  H    2.690095   2.716727   4.090735   5.093488   5.079333
    17  C    4.445108   3.835118   4.902257   6.197335   6.592255
    18  O    5.228964   4.863199   6.038081   7.277190   7.526543
    19  C    5.307068   4.341692   5.053212   6.444710   7.130847
    20  C    5.547854   4.522719   5.078303   6.437938   7.195189
    21  H    6.275164   5.115020   5.419718   6.767385   7.681910
    22  H    6.117650   5.252142   5.935410   7.260430   7.909139
    23  H    4.736164   3.716715   4.245490   5.554429   6.282433
    24  C    6.738682   5.835416   6.546066   7.937734   8.623536
    25  H    7.289726   6.269162   6.801156   8.188208   8.993579
    26  H    6.830897   6.091896   6.946297   8.303062   8.859503
    27  H    7.313861   6.433306   7.152616   8.546200   9.227279
    28  C    5.118472   3.958831   4.353612   5.723804   6.579388
    29  H    4.441591   3.395812   3.902954   5.208719   5.943648
    30  H    6.102317   4.948200   5.240009   6.571476   7.479163
    31  H    5.034544   3.724952   3.831584   5.192126   6.199156
                    6          7          8          9         10
     6  C    0.000000
     7  H    2.146700   0.000000
     8  H    3.396345   4.942800   0.000000
     9  H    2.146700   4.280590   2.471400   0.000000
    10  H    1.070000   2.471400   4.280590   2.471400   0.000000
    11  H    3.872800   4.280590   2.471400   4.280590   4.942800
    12  C    3.838989   2.736837   4.693509   5.412800   4.693509
    13  O    4.973887   4.104232   5.014769   6.249563   5.908083
    14  H    5.704584   4.548115   5.966909   7.118085   6.573265
    15  C    4.351002   2.654534   5.845759   6.206502   4.995748
    16  H    4.055382   2.058859   6.101567   6.080723   4.525492
    17  C    5.842417   4.096805   7.047690   7.653577   6.491084
    18  O    6.621264   4.659075   8.178042   8.566806   7.127655
    19  C    6.645623   5.215839   7.126154   8.198093   7.444473
    20  C    6.814438   5.554261   7.047249   8.238312   7.646099
    21  H    7.470062   6.408645   7.238249   8.700336   8.368697
    22  H    7.410154   5.977717   7.917965   8.946975   8.158910
    23  H    5.937907   4.833275   6.181438   7.308005   6.781011
    24  C    8.097313   6.544890   8.594747   9.690166   8.853376
    25  H    8.598322   7.209368   8.746409  10.045037   9.414905
    26  H    8.206763   6.503809   9.032733   9.921281   8.876174
    27  H    8.681600   7.083427   9.200160  10.295174   9.421072
    28  C    6.325089   5.276086   6.277849   7.614129   7.224113
    29  H    5.623650   4.587532   5.839592   6.968143   6.482848
    30  H    7.277697   6.253976   7.042595   8.490547   8.175966
    31  H    6.133821   5.373575   5.631810   7.207447   7.108186
                   11         12         13         14         15
    11  H    0.000000
    12  C    2.736837   0.000000
    13  O    2.662177   1.430000   0.000000
    14  H    3.616840   1.970533   0.960000   0.000000
    15  C    4.032611   1.355200   2.410965   2.463700   0.000000
    16  H    4.581261   1.987002   3.149195   3.182833   1.070000
    17  C    4.931488   2.366327   2.594120   2.063836   1.540000
    18  O    6.146859   3.493961   3.796966   3.166640   2.430306
    19  C    4.750461   2.820727   2.214754   1.433693   2.665832
    20  C    4.695816   3.152210   2.128250   1.239717   3.411968
    21  H    4.840234   3.847443   2.568569   1.899503   4.290654
    22  H    5.644416   3.880580   3.070128   2.169513   3.900132
    23  H    3.948240   2.530954   1.544854   1.008956   3.088233
    24  C    6.190556   4.311593   3.723180   2.915449   3.911906
    25  H    6.311436   4.810720   4.073822   3.391436   4.578305
    26  H    6.715902   4.589452   4.314239   3.568417   3.887139
    27  H    6.786846   4.902448   4.205155   3.290010   4.540448
    28  C    3.880810   2.680790   1.996491   1.847198   2.932048
    29  H    3.622012   2.268271   2.189107   2.326769   2.390200
    30  H    4.675890   3.727013   3.023866   2.803901   3.860808
    31  H    3.172742   2.659290   1.570295   1.727953   3.360021
                   16         17         18         19         20
    16  H    0.000000
    17  C    2.148263   0.000000
    18  O    2.605165   1.258400   0.000000
    19  C    3.482252   1.540000   2.426202   0.000000
    20  C    3.994904   2.514810   3.263573   1.540000   0.000000
    21  H    4.967315   3.440255   4.218501   2.148263   1.070000
    22  H    4.280758   2.798696   3.142708   2.148263   1.070000
    23  H    3.553093   2.670875   3.559947   2.148263   1.070000
    24  C    4.660252   2.514809   2.767480   1.540000   2.514809
    25  H    5.445307   3.352052   3.759595   2.148263   3.057983
    26  H    4.557654   2.492812   2.387468   2.148263   3.352052
    27  H    5.145604   3.057984   3.075113   2.148263   2.492812
    28  C    3.962130   2.514809   3.624747   1.540000   2.514809
    29  H    3.458945   2.454898   3.589554   2.148263   3.270841
    30  H    4.902295   3.270841   4.203218   2.148263   3.174382
    31  H    4.320097   3.174382   4.357282   2.148263   2.454899
                   21         22         23         24         25
    21  H    0.000000
    22  H    1.747303   0.000000
    23  H    1.747303   1.747303   0.000000
    24  C    2.798696   2.670875   3.440256   0.000000
    25  H    2.992594   3.402024   3.987187   1.070000   0.000000
    26  H    3.804510   3.403174   4.163631   1.070000   1.747303
    27  H    2.717782   2.253386   3.517357   1.070000   1.747303
    28  C    2.670875   3.440255   2.798696   2.514810   2.492813
    29  H    3.621749   4.146571   3.330667   3.174382   3.260079
    30  H    3.082657   4.011094   3.676375   2.454899   1.995026
    31  H    2.369234   3.510322   2.491420   3.270842   3.198071
                   26         27         28         29         30
    26  H    0.000000
    27  H    1.747303   0.000000
    28  C    3.057984   3.352053   0.000000
    29  H    3.414258   4.101479   1.070000   0.000000
    30  H    2.984032   3.355329   1.070000   1.747303   0.000000
    31  H    3.983146   3.912975   1.070000   1.747303   1.747303
                   31
    31  H    0.000000
 Stoichiometry    C13H16O2
 Framework group  C1[X(C13H16O2)]
 Deg. of freedom    87
 Full point group                 C1      NOp   1
 Largest Abelian subgroup         C1      NOp   1
 Largest concise Abelian subgroup C1      NOp   1
                         Standard orientation:                         
 ---------------------------------------------------------------------
 Center     Atomic      Atomic             Coordinates (Angstroms)
 Number     Number       Type             X           Y           Z
 ---------------------------------------------------------------------
      1          6           0       -2.493374    1.233267    0.072217
      2          6           0       -1.746038    0.049888    0.001344
      3          6           0       -2.398978   -1.186997   -0.086453
      4          6           0       -3.799254   -1.240501   -0.103379
      5          6           0       -4.546590   -0.057122   -0.032505
      6          6           0       -3.893650    1.179763    0.055294
      7          1           0       -1.994840    2.177656    0.139253
      8          1           0       -4.297788   -2.184890   -0.170415
      9          1           0       -5.615732   -0.097974   -0.045425
     10          1           0       -4.464258    2.083299    0.109410
     11          1           0       -1.828371   -2.090534   -0.140566
     12          6           0       -0.207274    0.108684    0.019943
     13          8           0        0.544366   -1.032657    0.440990
     14          1           0        1.434542   -0.761074    0.676421
     15          6           0        0.436962    1.238352   -0.361342
     16          1           0        0.060358    2.069570    0.197359
     17          6           0        1.946001    1.083065   -0.096226
     18          8           0        2.663366    2.099028    0.095543
     19          6           0        2.579319   -0.320351   -0.065688
     20          6           0        2.462588   -0.905428    1.354051
     21          1           0        2.775411   -1.928638    1.344982
     22          1           0        3.085536   -0.347918    2.021898
     23          1           0        1.445714   -0.846241    1.681713
     24          6           0        4.064778   -0.221877   -0.459789
     25          1           0        4.330814   -1.065654   -1.061591
     26          1           0        4.227484    0.677979   -1.015384
     27          1           0        4.668139   -0.209536    0.423785
     28          6           0        1.843908   -1.237164   -1.060789
     29          1           0        1.146582   -0.658883   -1.630199
     30          1           0        2.554266   -1.690069   -1.720462
     31          1           0        1.319911   -1.999545   -0.523108
 ---------------------------------------------------------------------
 Rotational constants (GHZ):      1.5894624      0.3218081      0.2861135
 Standard basis: 6-311G (5D, 7F)
 There are   243 symmetry adapted basis functions of A   symmetry.
 Integral buffers will be    262144 words long.
 Raffenetti 1 integral format.
 Two-electron integral symmetry is turned on.
   243 basis functions,   470 primitive gaussians,   243 cartesian basis functions
    55 alpha electrons       55 beta electrons
       nuclear repulsion energy       996.1123186001 Hartrees.
 NAtoms=   31 NActive=   31 NUniq=   31 SFac= 7.50D-01 NAtFMM=   80 NAOKFM=F Big=F
 One-electron integrals computed using PRISM.
 NBasis=   243 RedAO= T  NBF=   243
 NBsUse=   243 1.00D-06 NBFU=   243
 Harris functional with IExCor=  205 diagonalized for initial guess.
 ExpMin= 1.03D-01 ExpMax= 8.59D+03 ExpMxC= 1.30D+03 IAcc=1 IRadAn=         1 AccDes= 0.00D+00
 HarFok:  IExCor=  205 AccDes= 0.00D+00 IRadAn=         1 IDoV= 1
 ScaDFX=  1.000000  1.000000  1.000000  1.000000
 FoFCou: FMM=F IPFlag=           0 FMFlag=      100000 FMFlg1=           0
         NFxFlg=           0 DoJE=T BraDBF=F KetDBF=T FulRan=T
         Omega=  0.000000  0.000000  1.000000  0.000000  0.000000 ICntrl=     500 IOpCl=  0
         NMat0=    1 NMatS0=    1 NMatT0=    0 NMatD0=    1 NMtDS0=    0 NMtDT0=    0
         I1Cent=           4 NGrid=           0.
 Petite list used in FoFCou.
 Initial guess orbital symmetries:
       Occupied  (A) (A) (A) (A) (A) (A) (A) (A) (A) (A) (A) (A)
                 (A) (A) (A) (A) (A) (A) (A) (A) (A) (A) (A) (A)
                 (A) (A) (A) (A) (A) (A) (A) (A) (A) (A) (A) (A)
                 (A) (A) (A) (A) (A) (A) (A) (A) (A) (A) (A) (A)
                 (A) (A) (A) (A) (A) (A) (A)
       Virtual   (A) (A) (A) (A) (A) (A) (A) (A) (A) (A) (A) (A)
                 (A) (A) (A) (A) (A) (A) (A) (A) (A) (A) (A) (A)
                 (A) (A) (A) (A) (A) (A) (A) (A) (A) (A) (A) (A)
                 (A) (A) (A) (A) (A) (A) (A) (A) (A) (A) (A) (A)
                 (A) (A) (A) (A) (A) (A) (A) (A) (A) (A) (A) (A)
                 (A) (A) (A) (A) (A) (A) (A) (A) (A) (A) (A) (A)
                 (A) (A) (A) (A) (A) (A) (A) (A) (A) (A) (A) (A)
                 (A) (A) (A) (A) (A) (A) (A) (A) (A) (A) (A) (A)
                 (A) (A) (A) (A) (A) (A) (A) (A) (A) (A) (A) (A)
                 (A) (A) (A) (A) (A) (A) (A) (A) (A) (A) (A) (A)
                 (A) (A) (A) (A) (A) (A) (A) (A) (A) (A) (A) (A)
                 (A) (A) (A) (A) (A) (A) (A) (A) (A) (A) (A) (A)
                 (A) (A) (A) (A) (A) (A) (A) (A) (A) (A) (A) (A)
                 (A) (A) (A) (A) (A) (A) (A) (A) (A) (A) (A) (A)
                 (A) (A) (A) (A) (A) (A) (A) (A) (A) (A) (A) (A)
                 (A) (A) (A) (A) (A) (A) (A) (A)
 The electronic state of the initial guess is 1-A.
 Requested convergence on RMS density matrix=1.00D-08 within 128 cycles.
 Requested convergence on MAX density matrix=1.00D-06.
 Requested convergence on             energy=1.00D-06.
 No special actions if energy rises.
 Integral accuracy reduced to 1.0D-05 until final iterations.
 Initial convergence to 1.0D-05 achieved.  Increase integral accuracy.
 SCF Done:  E(RHF) =  -650.848061113     A.U. after   18 cycles
             Convg  =    0.4885D-08             -V/T =  1.9978

 **********************************************************************

            Population analysis using the SCF density.

 **********************************************************************

 Orbital symmetries:
       Occupied  (A) (A) (A) (A) (A) (A) (A) (A) (A) (A) (A) (A)
                 (A) (A) (A) (A) (A) (A) (A) (A) (A) (A) (A) (A)
                 (A) (A) (A) (A) (A) (A) (A) (A) (A) (A) (A) (A)
                 (A) (A) (A) (A) (A) (A) (A) (A) (A) (A) (A) (A)
                 (A) (A) (A) (A) (A) (A) (A)
       Virtual   (A) (A) (A) (A) (A) (A) (A) (A) (A) (A) (A) (A)
                 (A) (A) (A) (A) (A) (A) (A) (A) (A) (A) (A) (A)
                 (A) (A) (A) (A) (A) (A) (A) (A) (A) (A) (A) (A)
                 (A) (A) (A) (A) (A) (A) (A) (A) (A) (A) (A) (A)
                 (A) (A) (A) (A) (A) (A) (A) (A) (A) (A) (A) (A)
                 (A) (A) (A) (A) (A) (A) (A) (A) (A) (A) (A) (A)
                 (A) (A) (A) (A) (A) (A) (A) (A) (A) (A) (A) (A)
                 (A) (A) (A) (A) (A) (A) (A) (A) (A) (A) (A) (A)
                 (A) (A) (A) (A) (A) (A) (A) (A) (A) (A) (A) (A)
                 (A) (A) (A) (A) (A) (A) (A) (A) (A) (A) (A) (A)
                 (A) (A) (A) (A) (A) (A) (A) (A) (A) (A) (A) (A)
                 (A) (A) (A) (A) (A) (A) (A) (A) (A) (A) (A) (A)
                 (A) (A) (A) (A) (A) (A) (A) (A) (A) (A) (A) (A)
                 (A) (A) (A) (A) (A) (A) (A) (A) (A) (A) (A) (A)
                 (A) (A) (A) (A) (A) (A) (A) (A) (A) (A) (A) (A)
                 (A) (A) (A) (A) (A) (A) (A) (A)
 The electronic state is 1-A.
 Alpha  occ. eigenvalues --  -20.56530 -20.54574 -11.36840 -11.35289 -11.28361
 Alpha  occ. eigenvalues --  -11.27835 -11.26642 -11.26363 -11.26251 -11.26031
 Alpha  occ. eigenvalues --  -11.25902 -11.24213 -11.24058 -11.21500 -11.20131
 Alpha  occ. eigenvalues --   -1.47578  -1.37341  -1.18495  -1.15704  -1.10645
 Alpha  occ. eigenvalues --   -1.03900  -1.03531  -1.01347  -0.96226  -0.89161
 Alpha  occ. eigenvalues --   -0.86255  -0.84475  -0.81653  -0.76492  -0.73029
 Alpha  occ. eigenvalues --   -0.70925  -0.68548  -0.67407  -0.66059  -0.63990
 Alpha  occ. eigenvalues --   -0.62747  -0.62108  -0.61229  -0.60132  -0.56984
 Alpha  occ. eigenvalues --   -0.56318  -0.55935  -0.53644  -0.53304  -0.52564
 Alpha  occ. eigenvalues --   -0.51407  -0.50253  -0.49429  -0.48440  -0.46807
 Alpha  occ. eigenvalues --   -0.45204  -0.40973  -0.37787  -0.35393  -0.32523
 Alpha virt. eigenvalues --    0.05705   0.11354   0.14033   0.14721   0.15872
 Alpha virt. eigenvalues --    0.16881   0.17766   0.18491   0.19916   0.20200
 Alpha virt. eigenvalues --    0.20937   0.21622   0.22070   0.22902   0.23856
 Alpha virt. eigenvalues --    0.26313   0.27336   0.27998   0.29458   0.31180
 Alpha virt. eigenvalues --    0.32425   0.33113   0.36047   0.37583   0.38317
 Alpha virt. eigenvalues --    0.38643   0.40644   0.42150   0.43282   0.43779
 Alpha virt. eigenvalues --    0.45112   0.46176   0.48062   0.50041   0.50270
 Alpha virt. eigenvalues --    0.50442   0.52618   0.54346   0.54953   0.55494
 Alpha virt. eigenvalues --    0.56550   0.57244   0.57995   0.58466   0.59810
 Alpha virt. eigenvalues --    0.61580   0.62122   0.63137   0.63231   0.63960
 Alpha virt. eigenvalues --    0.66310   0.67026   0.68533   0.70088   0.71647
 Alpha virt. eigenvalues --    0.72696   0.72751   0.74144   0.76116   0.76593
 Alpha virt. eigenvalues --    0.77365   0.78664   0.79468   0.79777   0.80303
 Alpha virt. eigenvalues --    0.81173   0.81517   0.81771   0.82243   0.82914
 Alpha virt. eigenvalues --    0.83650   0.84193   0.84714   0.85078   0.85452
 Alpha virt. eigenvalues --    0.86235   0.86714   0.88819   0.89050   0.90325
 Alpha virt. eigenvalues --    0.90809   0.93631   0.94614   0.95041   0.95618
 Alpha virt. eigenvalues --    0.98936   1.00902   1.01775   1.03326   1.05587
 Alpha virt. eigenvalues --    1.07635   1.09612   1.09989   1.11192   1.13896
 Alpha virt. eigenvalues --    1.16520   1.17364   1.20616   1.23532   1.25552
 Alpha virt. eigenvalues --    1.26774   1.29006   1.30189   1.37688   1.39022
 Alpha virt. eigenvalues --    1.41369   1.45635   1.49610   1.54742   1.56481
 Alpha virt. eigenvalues --    1.94590   2.05985   2.54493   2.55240   2.55599
 Alpha virt. eigenvalues --    2.57284   2.59042   2.60635   2.62467   2.64893
 Alpha virt. eigenvalues --    2.66318   2.67075   2.69459   2.70102   2.73069
 Alpha virt. eigenvalues --    2.73833   2.85384   2.90670   2.93521   2.94560
 Alpha virt. eigenvalues --    2.96141   3.01840   3.03229   3.04143   3.07399
 Alpha virt. eigenvalues --    3.10054   3.11515   3.15072   3.18463   3.21094
 Alpha virt. eigenvalues --    3.21340   3.23157   3.25062   3.25954   3.27683
 Alpha virt. eigenvalues --    3.29299   3.29759   3.34434   3.39231   3.40048
 Alpha virt. eigenvalues --    3.40997   3.44903   3.45537   3.48028   3.51420
 Alpha virt. eigenvalues --    3.53470   3.54264   3.56075   3.57402   3.60726
 Alpha virt. eigenvalues --    3.63594   3.64959   3.65495   3.66523   3.69076
 Alpha virt. eigenvalues --    3.76730   3.91782   5.44759   5.50507   5.52733
 Alpha virt. eigenvalues --    5.58613   5.64138   5.82969  24.25505  24.42713
 Alpha virt. eigenvalues --   24.49147  24.50690  24.53886  24.64273  24.69649
 Alpha virt. eigenvalues --   24.73706  24.74165  24.78499  24.81367  24.83591
 Alpha virt. eigenvalues --   25.01013  51.61265  51.64369
          Condensed to atoms (all electrons):
              1          2          3          4          5          6
     1  C    5.072659   0.446938  -0.074354  -0.029353  -0.089510   0.460330
     2  C    0.446938   5.429655   0.471330  -0.055287  -0.011209  -0.058886
     3  C   -0.074354   0.471330   5.062413   0.445711  -0.085617  -0.030450
     4  C   -0.029353  -0.055287   0.445711   5.074224   0.489605  -0.073270
     5  C   -0.089510  -0.011209  -0.085617   0.489605   5.003097   0.490962
     6  C    0.460330  -0.058886  -0.030450  -0.073270   0.490962   5.050780
     7  H    0.392098  -0.045581   0.003883  -0.000187   0.004487  -0.028528
     8  H   -0.000197   0.005432  -0.037686   0.399011  -0.038689   0.005586
     9  H    0.007545  -0.001497   0.007112  -0.041195   0.399033  -0.040953
    10  H   -0.036457   0.005594  -0.000238   0.005467  -0.038544   0.397968
    11  H    0.004032  -0.038039   0.397342  -0.038240   0.004615  -0.000383
    12  C   -0.035519   0.092396  -0.049639   0.008397   0.000547   0.010689
    13  O    0.002088  -0.096495   0.011061   0.000365   0.000003  -0.000095
    14  H    0.000914   0.005109  -0.000810   0.000071   0.000005   0.000014
    15  C    0.001232  -0.091162   0.004621  -0.000594   0.000053   0.001195
    16  H    0.007723  -0.030954  -0.000551   0.000098  -0.000074   0.000958
    17  C   -0.001965   0.019381  -0.000067   0.000006   0.000002  -0.000071
    18  O    0.000021  -0.000397   0.000001   0.000000   0.000000   0.000000
    19  C    0.000042  -0.007789   0.000299   0.000002   0.000000   0.000003
    20  C   -0.000022  -0.000769   0.000131   0.000000   0.000000  -0.000001
    21  H   -0.000001  -0.000003   0.000005   0.000000   0.000000   0.000000
    22  H   -0.000002   0.000083  -0.000008   0.000000   0.000000   0.000000
    23  H    0.000014  -0.002514   0.000360  -0.000013  -0.000002  -0.000006
    24  C   -0.000001   0.000101  -0.000001   0.000000   0.000000   0.000000
    25  H    0.000000  -0.000002   0.000000   0.000000   0.000000   0.000000
    26  H    0.000000   0.000012   0.000000   0.000000   0.000000   0.000000
    27  H    0.000000  -0.000004   0.000000   0.000000   0.000000   0.000000
    28  C    0.000164  -0.000784  -0.001012  -0.000007   0.000000   0.000001
    29  H    0.000001   0.001764   0.000214   0.000018  -0.000003  -0.000006
    30  H   -0.000006  -0.000224   0.000017   0.000001   0.000000   0.000000
    31  H   -0.000020  -0.000068   0.000145  -0.000021   0.000001  -0.000003
              7          8          9         10         11         12
     1  C    0.392098  -0.000197   0.007545  -0.036457   0.004032  -0.035519
     2  C   -0.045581   0.005432  -0.001497   0.005594  -0.038039   0.092396
     3  C    0.003883  -0.037686   0.007112  -0.000238   0.397342  -0.049639
     4  C   -0.000187   0.399011  -0.041195   0.005467  -0.038240   0.008397
     5  C    0.004487  -0.038689   0.399033  -0.038544   0.004615   0.000547
     6  C   -0.028528   0.005586  -0.040953   0.397968  -0.000383   0.010689
     7  H    0.481580   0.000016  -0.000154  -0.003351  -0.000218  -0.003464
     8  H    0.000016   0.503578  -0.003959  -0.000192  -0.003298  -0.000418
     9  H   -0.000154  -0.003959   0.505806  -0.003880  -0.000138  -0.000037
    10  H   -0.003351  -0.000192  -0.003880   0.502183   0.000013  -0.000301
    11  H   -0.000218  -0.003298  -0.000138   0.000013   0.468868  -0.002629
    12  C   -0.003464  -0.000418  -0.000037  -0.000301  -0.002629   5.256140
    13  O    0.000152  -0.000020   0.000000   0.000001   0.003261   0.199861
    14  H    0.000149   0.000003   0.000000   0.000000  -0.000431  -0.005279
    15  C    0.002187   0.000001   0.000000   0.000003   0.000984   0.183132
    16  H   -0.001249   0.000002  -0.000001   0.000026  -0.000099  -0.007495
    17  C   -0.000446   0.000000   0.000000   0.000001   0.000031  -0.077734
    18  O   -0.000169   0.000000   0.000000   0.000000   0.000000   0.005183
    19  C   -0.000130   0.000000   0.000000   0.000000  -0.000096   0.003360
    20  C    0.000001   0.000000   0.000000   0.000000   0.000179   0.043918
    21  H   -0.000001   0.000000   0.000000   0.000000  -0.000013  -0.000131
    22  H    0.000000   0.000000   0.000000   0.000000  -0.000004  -0.002158
    23  H   -0.000028  -0.000001   0.000000   0.000000   0.000185   0.016502
    24  C    0.000001   0.000000   0.000000   0.000000  -0.000001   0.001199
    25  H    0.000000   0.000000   0.000000   0.000000   0.000000   0.000065
    26  H    0.000000   0.000000   0.000000   0.000000   0.000000  -0.000165
    27  H    0.000000   0.000000   0.000000   0.000000   0.000000  -0.000171
    28  C    0.000008  -0.000001   0.000000   0.000000   0.000198  -0.050165
    29  H   -0.000036   0.000000   0.000000   0.000000   0.000022   0.005181
    30  H    0.000000   0.000000   0.000000   0.000000  -0.000014   0.000640
    31  H   -0.000005  -0.000002   0.000000   0.000000   0.000614   0.005120
             13         14         15         16         17         18
     1  C    0.002088   0.000914   0.001232   0.007723  -0.001965   0.000021
     2  C   -0.096495   0.005109  -0.091162  -0.030954   0.019381  -0.000397
     3  C    0.011061  -0.000810   0.004621  -0.000551  -0.000067   0.000001
     4  C    0.000365   0.000071  -0.000594   0.000098   0.000006   0.000000
     5  C    0.000003   0.000005   0.000053  -0.000074   0.000002   0.000000
     6  C   -0.000095   0.000014   0.001195   0.000958  -0.000071   0.000000
     7  H    0.000152   0.000149   0.002187  -0.001249  -0.000446  -0.000169
     8  H   -0.000020   0.000003   0.000001   0.000002   0.000000   0.000000
     9  H    0.000000   0.000000   0.000000  -0.000001   0.000000   0.000000
    10  H    0.000001   0.000000   0.000003   0.000026   0.000001   0.000000
    11  H    0.003261  -0.000431   0.000984  -0.000099   0.000031   0.000000
    12  C    0.199861  -0.005279   0.183132  -0.007495  -0.077734   0.005183
    13  O    9.188943   0.230715  -0.134479   0.006932   0.014171   0.000262
    14  H    0.230715   0.689119  -0.011847   0.001161  -0.046133  -0.000712
    15  C   -0.134479  -0.011847   6.238444   0.297821   0.176160  -0.102658
    16  H    0.006932   0.001161   0.297821   0.522163  -0.037206   0.012188
    17  C    0.014171  -0.046133   0.176160  -0.037206   5.131946   0.555723
    18  O    0.000262  -0.000712  -0.102658   0.012188   0.555723   8.152183
    19  C   -0.089187   0.077845  -0.204262   0.013131  -0.192710  -0.127635
    20  C   -0.279122  -0.112849   0.002725  -0.000894  -0.048744   0.003619
    21  H    0.009286  -0.026550  -0.000847   0.000081   0.004762  -0.000276
    22  H    0.009347  -0.000338   0.000181  -0.000048  -0.001557   0.003647
    23  H   -0.077855  -0.071562  -0.012866   0.000297   0.023120   0.001022
    24  C    0.006711  -0.000160   0.005434  -0.000284  -0.032016  -0.000041
    25  H   -0.000176   0.000496  -0.000293   0.000007   0.007625   0.000297
    26  H   -0.000167   0.000712   0.001888  -0.000092  -0.000602   0.005348
    27  H   -0.000024  -0.000939  -0.000020  -0.000001  -0.002890   0.000860
    28  C   -0.215784  -0.120480   0.036805  -0.000240  -0.065510   0.005662
    29  H   -0.018369  -0.004199  -0.025074   0.000994   0.006481   0.000203
    30  H    0.011779   0.008245   0.000421   0.000021   0.002470  -0.000124
    31  H   -0.086127  -0.038585  -0.000322  -0.000063   0.007204  -0.000215
             19         20         21         22         23         24
     1  C    0.000042  -0.000022  -0.000001  -0.000002   0.000014  -0.000001
     2  C   -0.007789  -0.000769  -0.000003   0.000083  -0.002514   0.000101
     3  C    0.000299   0.000131   0.000005  -0.000008   0.000360  -0.000001
     4  C    0.000002   0.000000   0.000000   0.000000  -0.000013   0.000000
     5  C    0.000000   0.000000   0.000000   0.000000  -0.000002   0.000000
     6  C    0.000003  -0.000001   0.000000   0.000000  -0.000006   0.000000
     7  H   -0.000130   0.000001  -0.000001   0.000000  -0.000028   0.000001
     8  H    0.000000   0.000000   0.000000   0.000000  -0.000001   0.000000
     9  H    0.000000   0.000000   0.000000   0.000000   0.000000   0.000000
    10  H    0.000000   0.000000   0.000000   0.000000   0.000000   0.000000
    11  H   -0.000096   0.000179  -0.000013  -0.000004   0.000185  -0.000001
    12  C    0.003360   0.043918  -0.000131  -0.002158   0.016502   0.001199
    13  O   -0.089187  -0.279122   0.009286   0.009347  -0.077855   0.006711
    14  H    0.077845  -0.112849  -0.026550  -0.000338  -0.071562  -0.000160
    15  C   -0.204262   0.002725  -0.000847   0.000181  -0.012866   0.005434
    16  H    0.013131  -0.000894   0.000081  -0.000048   0.000297  -0.000284
    17  C   -0.192710  -0.048744   0.004762  -0.001557   0.023120  -0.032016
    18  O   -0.127635   0.003619  -0.000276   0.003647   0.001022  -0.000041
    19  C    7.708533  -0.125159  -0.042673  -0.037901  -0.131803   0.087741
    20  C   -0.125159   5.977027   0.393320   0.356239   0.493207  -0.064343
    21  H   -0.042673   0.393320   0.451284  -0.012514  -0.015316   0.004986
    22  H   -0.037901   0.356239  -0.012514   0.475891  -0.015932  -0.001218
    23  H   -0.131803   0.493207  -0.015316  -0.015932   0.557815  -0.000794
    24  C    0.087741  -0.064343   0.004986  -0.001218  -0.000794   5.285620
    25  H   -0.061707  -0.001589   0.001223  -0.000272  -0.000448   0.406975
    26  H   -0.053333   0.005195  -0.000283   0.000131  -0.000214   0.403700
    27  H   -0.064005  -0.005752  -0.000830   0.001796   0.000603   0.408887
    28  C   -0.198158  -0.019245  -0.008680   0.008419   0.042045  -0.053800
    29  H   -0.069958   0.006050   0.000319  -0.000271  -0.000180   0.001372
    30  H   -0.049158   0.000883   0.000150  -0.000321  -0.001489  -0.006817
    31  H   -0.053282   0.011959   0.002463   0.000199   0.009164   0.001131
             25         26         27         28         29         30
     1  C    0.000000   0.000000   0.000000   0.000164   0.000001  -0.000006
     2  C   -0.000002   0.000012  -0.000004  -0.000784   0.001764  -0.000224
     3  C    0.000000   0.000000   0.000000  -0.001012   0.000214   0.000017
     4  C    0.000000   0.000000   0.000000  -0.000007   0.000018   0.000001
     5  C    0.000000   0.000000   0.000000   0.000000  -0.000003   0.000000
     6  C    0.000000   0.000000   0.000000   0.000001  -0.000006   0.000000
     7  H    0.000000   0.000000   0.000000   0.000008  -0.000036   0.000000
     8  H    0.000000   0.000000   0.000000  -0.000001   0.000000   0.000000
     9  H    0.000000   0.000000   0.000000   0.000000   0.000000   0.000000
    10  H    0.000000   0.000000   0.000000   0.000000   0.000000   0.000000
    11  H    0.000000   0.000000   0.000000   0.000198   0.000022  -0.000014
    12  C    0.000065  -0.000165  -0.000171  -0.050165   0.005181   0.000640
    13  O   -0.000176  -0.000167  -0.000024  -0.215784  -0.018369   0.011779
    14  H    0.000496   0.000712  -0.000939  -0.120480  -0.004199   0.008245
    15  C   -0.000293   0.001888  -0.000020   0.036805  -0.025074   0.000421
    16  H    0.000007  -0.000092  -0.000001  -0.000240   0.000994   0.000021
    17  C    0.007625  -0.000602  -0.002890  -0.065510   0.006481   0.002470
    18  O    0.000297   0.005348   0.000860   0.005662   0.000203  -0.000124
    19  C   -0.061707  -0.053333  -0.064005  -0.198158  -0.069958  -0.049158
    20  C   -0.001589   0.005195  -0.005752  -0.019245   0.006050   0.000883
    21  H    0.001223  -0.000283  -0.000830  -0.008680   0.000319   0.000150
    22  H   -0.000272   0.000131   0.001796   0.008419  -0.000271  -0.000321
    23  H   -0.000448  -0.000214   0.000603   0.042045  -0.000180  -0.001489
    24  C    0.406975   0.403700   0.408887  -0.053800   0.001372  -0.006817
    25  H    0.536597  -0.025504  -0.029020  -0.011707   0.000729  -0.004270
    26  H   -0.025504   0.462318  -0.019780   0.001173   0.000151   0.000552
    27  H   -0.029020  -0.019780   0.526080   0.007241  -0.000450   0.001379
    28  C   -0.011707   0.001173   0.007241   5.916909   0.417611   0.389054
    29  H    0.000729   0.000151  -0.000450   0.417611   0.492847  -0.023950
    30  H   -0.004270   0.000552   0.001379   0.389054  -0.023950   0.559381
    31  H    0.001187  -0.000237  -0.000343   0.439102  -0.013314  -0.032560
             31
     1  C   -0.000020
     2  C   -0.000068
     3  C    0.000145
     4  C   -0.000021
     5  C    0.000001
     6  C   -0.000003
     7  H   -0.000005
     8  H   -0.000002
     9  H    0.000000
    10  H    0.000000
    11  H    0.000614
    12  C    0.005120
    13  O   -0.086127
    14  H   -0.038585
    15  C   -0.000322
    16  H   -0.000063
    17  C    0.007204
    18  O   -0.000215
    19  C   -0.053282
    20  C    0.011959
    21  H    0.002463
    22  H    0.000199
    23  H    0.009164
    24  C    0.001131
    25  H    0.001187
    26  H   -0.000237
    27  H   -0.000343
    28  C    0.439102
    29  H   -0.013314
    30  H   -0.032560
    31  H    0.493976
 Mulliken atomic charges:
              1
     1  C   -0.128393
     2  C   -0.036132
     3  C   -0.124213
     4  C   -0.184810
     5  C   -0.128759
     6  C   -0.185834
     7  H    0.198985
     8  H    0.170833
     9  H    0.172320
    10  H    0.171706
    11  H    0.203258
    12  C    0.402973
    13  O   -0.697039
    14  H    0.426314
    15  C   -0.368860
    16  H    0.215645
    17  C    0.558570
    18  O   -0.513994
    19  C   -0.382010
    20  C   -0.635964
    21  H    0.240239
    22  H    0.216611
    23  H    0.186687
    24  C   -0.454381
    25  H    0.179787
    26  H    0.219200
    27  H    0.177383
    28  C   -0.518819
    29  H    0.221854
    30  H    0.143941
    31  H    0.252900
 Sum of Mulliken atomic charges =   0.00000
 Mulliken charges with hydrogens summed into heavy atoms:
              1
     1  C    0.070592
     2  C   -0.036132
     3  C    0.079045
     4  C   -0.013977
     5  C    0.043561
     6  C   -0.014128
    12  C    0.402973
    13  O   -0.270725
    15  C   -0.153215
    17  C    0.558570
    18  O   -0.513994
    19  C   -0.382010
    20  C    0.007573
    24  C    0.121991
    28  C    0.099877
 Sum of Mulliken charges with hydrogens summed into heavy atoms =   0.00000
 Electronic spatial extent (au):  <R**2>=           3860.5738
 Charge=              0.0000 electrons
 Dipole moment (field-independent basis, Debye):
    X=             -2.7343    Y=             -2.9937    Z=              1.1995  Tot=              4.2281
 Quadrupole moment (field-independent basis, Debye-Ang):
   XX=            -84.2705   YY=            -96.4622   ZZ=            -95.6204
   XY=            -12.0988   XZ=              1.7840   YZ=              0.9259
 Traceless Quadrupole moment (field-independent basis, Debye-Ang):
   XX=              7.8472   YY=             -4.3445   ZZ=             -3.5027
   XY=            -12.0988   XZ=              1.7840   YZ=              0.9259
 Octapole moment (field-independent basis, Debye-Ang**2):
  XXX=            -53.5928  YYY=            -21.6300  ZZZ=              9.0116  XYY=            -36.0928
  XXY=            -34.2003  XXZ=              2.7218  XZZ=             25.1688  YZZ=             -1.1062
  YYZ=              3.3003  XYZ=             -7.5239
 Hexadecapole moment (field-independent basis, Debye-Ang**3):
 XXXX=          -3922.7504 YYYY=           -796.9134 ZZZZ=           -294.4383 XXXY=            -83.7560
 XXXZ=             13.0284 YYYX=            -59.1841 YYYZ=              1.7034 ZZZX=             11.7776
 ZZZY=             -1.1596 XXYY=           -850.5392 XXZZ=           -797.4884 YYZZ=           -187.7988
 XXYZ=             -7.5642 YYXZ=              0.9719 ZZXY=              4.1835
 N-N= 9.961123186001D+02 E-N=-3.513501809586D+03  KE= 6.523102533972D+02
 1|1|UNPC-DESKTOP-K2VF0AK|SP|RHF|6-311G|C13H16O2|MELIH|25-Nov-2024|0||#
  hf/6-311g geom=connectivity||Title Card Required||0,1|C,0,-4.54084167
 ,0.92110437,-1.74422095|C,0,-3.78193298,-0.248989,-1.8815565|C,0,-2.60
 066856,-0.23356965,-2.63541229|C,0,-2.17831215,0.95194338,-3.25193146|
 C,0,-2.93722106,2.12203665,-3.11459623|C,0,-4.11848624,2.10661694,-2.3
 6074163|H,0,-5.44276379,0.90933112,-1.16863611|H,0,-1.27639009,0.96371
 66,-3.82751639|H,0,-2.61474383,3.02720157,-3.58532428|H,0,-4.69793109,
 3.00000864,-2.2558848|H,0,-2.02122544,-1.12696214,-2.74027185|C,0,-4.2
 4606111,-1.55175067,-1.20406325|O,0,-3.80350662,-2.81431637,-1.7090121
 3|H,0,-4.38505503,-3.50851897,-1.39044628|C,0,-5.07245985,-1.5057639,-
 0.13097547|H,0,-5.93727706,-0.9234095,-0.37150521|C,0,-5.50459321,-2.9
 3507207,0.24577238|O,0,-6.59161972,-3.12997785,0.84905976|C,0,-4.60335
 61,-4.12996032,-0.1170137|C,0,-4.93518159,-4.60903869,-1.54248758|H,0,
 -4.22062047,-5.34504414,-1.84678741|H,0,-5.91575478,-5.03705935,-1.555
 69832|H,0,-4.89972346,-3.77787852,-2.21540325|C,0,-4.84693412,-5.27801
 308,0.88010445|H,0,-3.91831568,-5.76140351,1.10124124|H,0,-5.26757854,
 -4.88415587,1.78167795|H,0,-5.52414738,-5.98615257,0.45019672|C,0,-3.1
 267159,-3.69771695,-0.05144396|H,0,-3.06243685,-2.70717761,0.34805575|
 H,0,-2.58528382,-4.37219671,0.57849918|H,0,-2.70645018,-3.71345173,-1.
 03532867||Version=IA32W-G09RevA.02|State=1-A|HF=-650.8480611|RMSD=4.88
 5e-009|Dipole=0.9259829,0.2838142,-1.3524661|Quadrupole=-5.062518,10.9
 866294,-5.9241114,-2.0896367,3.4956531,-1.2126657|PG=C01 [X(C13H16O2)]
 ||@


 NOT WHAT WE DID SHALL BE THE TEST
 WHEN ACT AND WILL ARE DONE,
 BUT WHAT OUR LORD INFERS WE WOULD-
 HAD WE DIVINER BEEN.
           EMILY DICKINSON  POEMS NO. CLXXV
 Job cpu time:  0 days  0 hours  2 minutes 38.0 seconds.
 File lengths (MBytes):  RWF=     36 Int=      0 D2E=      0 Chk=      3 Scr=      1
 Normal termination of Gaussian 09 at Mon Nov 25 18:41:51 2024.
