 Entering Link 1 = C:\G09W\l1.exe PID=     21288.
  
 Copyright (c) 1988,1990,1992,1993,1995,1998,2003,2009, Gaussian, Inc.
                  All Rights Reserved.
  
 This is part of the Gaussian(R) 09 program.  It is based on
 the Gaussian(R) 03 system (copyright 2003, Gaussian, Inc.),
 the Gaussian(R) 98 system (copyright 1998, Gaussian, Inc.),
 the Gaussian(R) 94 system (copyright 1995, Gaussian, Inc.),
 the Gaussian 92(TM) system (copyright 1992, Gaussian, Inc.),
 the Gaussian 90(TM) system (copyright 1990, Gaussian, Inc.),
 the Gaussian 88(TM) system (copyright 1988, Gaussian, Inc.),
 the Gaussian 86(TM) system (copyright 1986, Carnegie Mellon
 University), and the Gaussian 82(TM) system (copyright 1983,
 Carnegie Mellon University). Gaussian is a federally registered
 trademark of Gaussian, Inc.
  
 This software contains proprietary and confidential information,
 including trade secrets, belonging to Gaussian, Inc.
  
 This software is provided under written license and may be
 used, copied, transmitted, or stored only in accord with that
 written license.
  
 The following legend is applicable only to US Government
 contracts under FAR:
  
                    RESTRICTED RIGHTS LEGEND
  
 Use, reproduction and disclosure by the US Government is
 subject to restrictions as set forth in subparagraphs (a)
 and (c) of the Commercial Computer Software - Restricted
 Rights clause in FAR 52.227-19.
  
 Gaussian, Inc.
 340 Quinnipiac St., Bldg. 40, Wallingford CT 06492
  
  
 ---------------------------------------------------------------
 Warning -- This program may not be used in any manner that
 competes with the business of Gaussian, Inc. or will provide
 assistance to any competitor of Gaussian, Inc.  The licensee
 of this program is prohibited from giving any competitor of
 Gaussian, Inc. access to this program.  By using this program,
 the user acknowledges that Gaussian, Inc. is engaged in the
 business of creating and licensing software in the field of
 computational chemistry and represents and warrants to the
 licensee that it is not a competitor of Gaussian, Inc. and that
 it will not use this program in any manner prohibited above.
 ---------------------------------------------------------------
  

 Cite this work as:
 Gaussian 09, Revision A.02,
 M. J. Frisch, G. W. Trucks, H. B. Schlegel, G. E. Scuseria, 
 M. A. Robb, J. R. Cheeseman, G. Scalmani, V. Barone, B. Mennucci, 
 G. A. Petersson, H. Nakatsuji, M. Caricato, X. Li, H. P. Hratchian, 
 A. F. Izmaylov, J. Bloino, G. Zheng, J. L. Sonnenberg, M. Hada, 
 M. Ehara, K. Toyota, R. Fukuda, J. Hasegawa, M. Ishida, T. Nakajima, 
 Y. Honda, O. Kitao, H. Nakai, T. Vreven, J. A. Montgomery, Jr., 
 J. E. Peralta, F. Ogliaro, M. Bearpark, J. J. Heyd, E. Brothers, 
 K. N. Kudin, V. N. Staroverov, R. Kobayashi, J. Normand, 
 K. Raghavachari, A. Rendell, J. C. Burant, S. S. Iyengar, J. Tomasi, 
 M. Cossi, N. Rega, J. M. Millam, M. Klene, J. E. Knox, J. B. Cross, 
 V. Bakken, C. Adamo, J. Jaramillo, R. Gomperts, R. E. Stratmann, 
 O. Yazyev, A. J. Austin, R. Cammi, C. Pomelli, J. W. Ochterski, 
 R. L. Martin, K. Morokuma, V. G. Zakrzewski, G. A. Voth, 
 P. Salvador, J. J. Dannenberg, S. Dapprich, A. D. Daniels, 
 O. Farkas, J. B. Foresman, J. V. Ortiz, J. Cioslowski, 
 and D. J. Fox, Gaussian, Inc., Wallingford CT, 2009.
 
 ******************************************
 Gaussian 09:  IA32W-G09RevA.02 11-Jun-2009
                22-Nov-2024 
 ******************************************
 %chk=C:\G09W\Midterm1\E8opt.chk
 ---------------------------------
 # opt hf/6-311g geom=connectivity
 ---------------------------------
 1/18=20,19=15,38=1,57=2/1,3;
 2/9=110,12=2,17=6,18=5,40=1/2;
 3/5=4,6=6,11=9,16=1,25=1,30=1,71=1/1,2,3;
 4//1;
 5/5=2,38=5/2;
 6/7=2,8=2,9=2,10=2,28=1/1;
 7//1,2,3,16;
 1/18=20,19=15/3(2);
 2/9=110/2;
 99//99;
 2/9=110/2;
 3/5=4,6=6,11=9,16=1,25=1,30=1,71=1/1,2,3;
 4/5=5,16=3/1;
 5/5=2,38=5/2;
 7//1,2,3,16;
 1/18=20,19=15/3(-5);
 2/9=110/2;
 6/7=2,8=2,9=2,10=2,19=2,28=1/1;
 99/9=1/99;
 -------------------
 Title Card Required
 -------------------
 Symbolic Z-matrix:
 Charge =  0 Multiplicity = 1
 C                    -4.54084   0.9211   -1.74422 
 C                    -3.78193  -0.24899  -1.88156 
 C                    -2.60067  -0.23357  -2.63541 
 C                    -2.17831   0.95194  -3.25193 
 C                    -2.93722   2.12204  -3.1146 
 C                    -4.11849   2.10662  -2.36074 
 H                    -5.44276   0.90933  -1.16864 
 H                    -1.27639   0.96372  -3.82752 
 H                    -2.61474   3.0272   -3.58532 
 H                    -4.69793   3.00001  -2.25588 
 H                    -2.02123  -1.12696  -2.74027 
 C                    -4.24606  -1.55175  -1.20406 
 O                    -3.80351  -2.81432  -1.70901 
 H                    -4.38506  -3.50852  -1.39045 
 C                    -5.07246  -1.50576  -0.13098 
 H                    -5.93728  -0.92341  -0.37151 
 C                    -5.50459  -2.93507   0.24577 
 O                    -6.59162  -3.12998   0.84906 
 C                    -4.60336  -4.12996  -0.11701 
 C                    -4.93518  -4.60904  -1.54249 
 H                    -4.22062  -5.34504  -1.84679 
 H                    -5.91575  -5.03706  -1.5557 
 H                    -4.89972  -3.77788  -2.2154 
 C                    -4.84693  -5.27801   0.8801 
 H                    -3.91832  -5.7614    1.10124 
 H                    -5.26758  -4.88416   1.78168 
 H                    -5.52415  -5.98615   0.4502 
 C                    -3.12672  -3.69772  -0.05144 
 H                    -3.06244  -2.70718   0.34806 
 H                    -2.58528  -4.3722    0.5785 
 H                    -2.70645  -3.71345  -1.03533 
 

 GradGradGradGradGradGradGradGradGradGradGradGradGradGradGradGradGradGrad
 Berny optimization.
 Initialization pass.
                           ----------------------------
                           !    Initial Parameters    !
                           ! (Angstroms and Degrees)  !
 --------------------------                            --------------------------
 ! Name  Definition              Value          Derivative Info.                !
 --------------------------------------------------------------------------------
 ! R1    R(1,2)                  1.4014         estimate D2E/DX2                !
 ! R2    R(1,6)                  1.4014         estimate D2E/DX2                !
 ! R3    R(1,7)                  1.07           estimate D2E/DX2                !
 ! R4    R(2,3)                  1.4014         estimate D2E/DX2                !
 ! R5    R(2,12)                 1.54           estimate D2E/DX2                !
 ! R6    R(3,4)                  1.4014         estimate D2E/DX2                !
 ! R7    R(3,11)                 1.07           estimate D2E/DX2                !
 ! R8    R(4,5)                  1.4014         estimate D2E/DX2                !
 ! R9    R(4,8)                  1.07           estimate D2E/DX2                !
 ! R10   R(5,6)                  1.4014         estimate D2E/DX2                !
 ! R11   R(5,9)                  1.07           estimate D2E/DX2                !
 ! R12   R(6,10)                 1.07           estimate D2E/DX2                !
 ! R13   R(12,13)                1.43           estimate D2E/DX2                !
 ! R14   R(12,15)                1.3552         estimate D2E/DX2                !
 ! R15   R(13,14)                0.96           estimate D2E/DX2                !
 ! R16   R(13,31)                1.5703         estimate D2E/DX2                !
 ! R17   R(14,20)                1.2397         estimate D2E/DX2                !
 ! R18   R(15,16)                1.07           estimate D2E/DX2                !
 ! R19   R(15,17)                1.54           estimate D2E/DX2                !
 ! R20   R(17,18)                1.2584         estimate D2E/DX2                !
 ! R21   R(17,19)                1.54           estimate D2E/DX2                !
 ! R22   R(19,20)                1.54           estimate D2E/DX2                !
 ! R23   R(19,24)                1.54           estimate D2E/DX2                !
 ! R24   R(19,28)                1.54           estimate D2E/DX2                !
 ! R25   R(20,21)                1.07           estimate D2E/DX2                !
 ! R26   R(20,22)                1.07           estimate D2E/DX2                !
 ! R27   R(20,23)                1.07           estimate D2E/DX2                !
 ! R28   R(24,25)                1.07           estimate D2E/DX2                !
 ! R29   R(24,26)                1.07           estimate D2E/DX2                !
 ! R30   R(24,27)                1.07           estimate D2E/DX2                !
 ! R31   R(28,29)                1.07           estimate D2E/DX2                !
 ! R32   R(28,30)                1.07           estimate D2E/DX2                !
 ! R33   R(28,31)                1.07           estimate D2E/DX2                !
 ! A1    A(2,1,6)              120.0            estimate D2E/DX2                !
 ! A2    A(2,1,7)              120.0            estimate D2E/DX2                !
 ! A3    A(6,1,7)              120.0            estimate D2E/DX2                !
 ! A4    A(1,2,3)              120.0            estimate D2E/DX2                !
 ! A5    A(1,2,12)             120.0            estimate D2E/DX2                !
 ! A6    A(3,2,12)             120.0            estimate D2E/DX2                !
 ! A7    A(2,3,4)              120.0            estimate D2E/DX2                !
 ! A8    A(2,3,11)             120.0            estimate D2E/DX2                !
 ! A9    A(4,3,11)             120.0            estimate D2E/DX2                !
 ! A10   A(3,4,5)              120.0            estimate D2E/DX2                !
 ! A11   A(3,4,8)              120.0            estimate D2E/DX2                !
 ! A12   A(5,4,8)              120.0            estimate D2E/DX2                !
 ! A13   A(4,5,6)              120.0            estimate D2E/DX2                !
 ! A14   A(4,5,9)              120.0            estimate D2E/DX2                !
 ! A15   A(6,5,9)              120.0            estimate D2E/DX2                !
 ! A16   A(1,6,5)              120.0            estimate D2E/DX2                !
 ! A17   A(1,6,10)             120.0            estimate D2E/DX2                !
 ! A18   A(5,6,10)             120.0            estimate D2E/DX2                !
 ! A19   A(2,12,13)            119.8865         estimate D2E/DX2                !
 ! A20   A(2,12,15)            120.2269         estimate D2E/DX2                !
 ! A21   A(13,12,15)           119.8865         estimate D2E/DX2                !
 ! A22   A(12,13,14)           109.5            estimate D2E/DX2                !
 ! A23   A(13,14,20)           150.4647         estimate D2E/DX2                !
 ! A24   A(12,15,16)           109.4712         estimate D2E/DX2                !
 ! A25   A(12,15,17)           109.4712         estimate D2E/DX2                !
 ! A26   A(16,15,17)           109.4712         estimate D2E/DX2                !
 ! A27   A(15,17,18)           120.2269         estimate D2E/DX2                !
 ! A28   A(15,17,19)           119.8865         estimate D2E/DX2                !
 ! A29   A(18,17,19)           119.8865         estimate D2E/DX2                !
 ! A30   A(17,19,20)           109.4712         estimate D2E/DX2                !
 ! A31   A(17,19,24)           109.4712         estimate D2E/DX2                !
 ! A32   A(17,19,28)           109.4712         estimate D2E/DX2                !
 ! A33   A(20,19,24)           109.4712         estimate D2E/DX2                !
 ! A34   A(20,19,28)           109.4712         estimate D2E/DX2                !
 ! A35   A(24,19,28)           109.4713         estimate D2E/DX2                !
 ! A36   A(14,20,19)            60.9681         estimate D2E/DX2                !
 ! A37   A(14,20,21)           110.4357         estimate D2E/DX2                !
 ! A38   A(14,20,22)           139.7545         estimate D2E/DX2                !
 ! A39   A(14,20,23)            51.1604         estimate D2E/DX2                !
 ! A40   A(19,20,21)           109.4712         estimate D2E/DX2                !
 ! A41   A(19,20,22)           109.4712         estimate D2E/DX2                !
 ! A42   A(19,20,23)           109.4712         estimate D2E/DX2                !
 ! A43   A(21,20,22)           109.4713         estimate D2E/DX2                !
 ! A44   A(21,20,23)           109.4712         estimate D2E/DX2                !
 ! A45   A(22,20,23)           109.4712         estimate D2E/DX2                !
 ! A46   A(19,24,25)           109.4712         estimate D2E/DX2                !
 ! A47   A(19,24,26)           109.4712         estimate D2E/DX2                !
 ! A48   A(19,24,27)           109.4712         estimate D2E/DX2                !
 ! A49   A(25,24,26)           109.4713         estimate D2E/DX2                !
 ! A50   A(25,24,27)           109.4712         estimate D2E/DX2                !
 ! A51   A(26,24,27)           109.4712         estimate D2E/DX2                !
 ! A52   A(19,28,29)           109.4712         estimate D2E/DX2                !
 ! A53   A(19,28,30)           109.4712         estimate D2E/DX2                !
 ! A54   A(19,28,31)           109.4712         estimate D2E/DX2                !
 ! A55   A(29,28,30)           109.4713         estimate D2E/DX2                !
 ! A56   A(29,28,31)           109.4712         estimate D2E/DX2                !
 ! A57   A(30,28,31)           109.4712         estimate D2E/DX2                !
 ! D1    D(6,1,2,3)              0.0            estimate D2E/DX2                !
 ! D2    D(6,1,2,12)          -179.9999         estimate D2E/DX2                !
 ! D3    D(7,1,2,3)            179.9999         estimate D2E/DX2                !
 ! D4    D(7,1,2,12)             0.0            estimate D2E/DX2                !
 ! D5    D(2,1,6,5)             -0.0001         estimate D2E/DX2                !
 ! D6    D(2,1,6,10)           179.9999         estimate D2E/DX2                !
 ! D7    D(7,1,6,5)            180.0            estimate D2E/DX2                !
 ! D8    D(7,1,6,10)            -0.0001         estimate D2E/DX2                !
 ! D9    D(1,2,3,4)              0.0001         estimate D2E/DX2                !
 ! D10   D(1,2,3,11)          -179.9999         estimate D2E/DX2                !
 ! D11   D(12,2,3,4)           180.0            estimate D2E/DX2                !
 ! D12   D(12,2,3,11)            0.0            estimate D2E/DX2                !
 ! D13   D(1,2,12,13)          156.8199         estimate D2E/DX2                !
 ! D14   D(1,2,12,15)          -23.1801         estimate D2E/DX2                !
 ! D15   D(3,2,12,13)          -23.18           estimate D2E/DX2                !
 ! D16   D(3,2,12,15)          156.82           estimate D2E/DX2                !
 ! D17   D(2,3,4,5)             -0.0001         estimate D2E/DX2                !
 ! D18   D(2,3,4,8)            179.9999         estimate D2E/DX2                !
 ! D19   D(11,3,4,5)           179.9999         estimate D2E/DX2                !
 ! D20   D(11,3,4,8)            -0.0001         estimate D2E/DX2                !
 ! D21   D(3,4,5,6)              0.0            estimate D2E/DX2                !
 ! D22   D(3,4,5,9)           -179.9999         estimate D2E/DX2                !
 ! D23   D(8,4,5,6)            180.0            estimate D2E/DX2                !
 ! D24   D(8,4,5,9)              0.0001         estimate D2E/DX2                !
 ! D25   D(4,5,6,1)              0.0001         estimate D2E/DX2                !
 ! D26   D(4,5,6,10)          -179.9999         estimate D2E/DX2                !
 ! D27   D(9,5,6,1)            179.9999         estimate D2E/DX2                !
 ! D28   D(9,5,6,10)             0.0            estimate D2E/DX2                !
 ! D29   D(2,12,13,14)        -161.26           estimate D2E/DX2                !
 ! D30   D(15,12,13,14)         18.74           estimate D2E/DX2                !
 ! D31   D(2,12,15,16)          53.59           estimate D2E/DX2                !
 ! D32   D(2,12,15,17)         173.59           estimate D2E/DX2                !
 ! D33   D(13,12,15,16)       -126.41           estimate D2E/DX2                !
 ! D34   D(13,12,15,17)         -6.41           estimate D2E/DX2                !
 ! D35   D(12,13,14,20)        149.2428         estimate D2E/DX2                !
 ! D36   D(13,14,20,19)        150.1694         estimate D2E/DX2                !
 ! D37   D(13,14,20,21)         48.6307         estimate D2E/DX2                !
 ! D38   D(13,14,20,22)       -123.5949         estimate D2E/DX2                !
 ! D39   D(13,14,20,23)        -50.3839         estimate D2E/DX2                !
 ! D40   D(12,15,17,18)       -154.1804         estimate D2E/DX2                !
 ! D41   D(12,15,17,19)         25.8196         estimate D2E/DX2                !
 ! D42   D(16,15,17,18)        -34.1804         estimate D2E/DX2                !
 ! D43   D(16,15,17,19)        145.8196         estimate D2E/DX2                !
 ! D44   D(15,17,19,20)        -86.96           estimate D2E/DX2                !
 ! D45   D(15,17,19,24)        153.04           estimate D2E/DX2                !
 ! D46   D(15,17,19,28)         33.04           estimate D2E/DX2                !
 ! D47   D(18,17,19,20)         93.04           estimate D2E/DX2                !
 ! D48   D(18,17,19,24)        -26.96           estimate D2E/DX2                !
 ! D49   D(18,17,19,28)       -146.96           estimate D2E/DX2                !
 ! D50   D(17,19,20,14)         68.9406         estimate D2E/DX2                !
 ! D51   D(17,19,20,21)        172.0801         estimate D2E/DX2                !
 ! D52   D(17,19,20,22)        -67.9199         estimate D2E/DX2                !
 ! D53   D(17,19,20,23)         52.0801         estimate D2E/DX2                !
 ! D54   D(24,19,20,14)       -171.0594         estimate D2E/DX2                !
 ! D55   D(24,19,20,21)        -67.9199         estimate D2E/DX2                !
 ! D56   D(24,19,20,22)         52.0801         estimate D2E/DX2                !
 ! D57   D(24,19,20,23)        172.0801         estimate D2E/DX2                !
 ! D58   D(28,19,20,14)        -51.0593         estimate D2E/DX2                !
 ! D59   D(28,19,20,21)         52.0801         estimate D2E/DX2                !
 ! D60   D(28,19,20,22)        172.0801         estimate D2E/DX2                !
 ! D61   D(28,19,20,23)        -67.9199         estimate D2E/DX2                !
 ! D62   D(17,19,24,25)       -141.8086         estimate D2E/DX2                !
 ! D63   D(17,19,24,26)        -21.8086         estimate D2E/DX2                !
 ! D64   D(17,19,24,27)         98.1914         estimate D2E/DX2                !
 ! D65   D(20,19,24,25)         98.1914         estimate D2E/DX2                !
 ! D66   D(20,19,24,26)       -141.8086         estimate D2E/DX2                !
 ! D67   D(20,19,24,27)        -21.8086         estimate D2E/DX2                !
 ! D68   D(28,19,24,25)        -21.8086         estimate D2E/DX2                !
 ! D69   D(28,19,24,26)         98.1914         estimate D2E/DX2                !
 ! D70   D(28,19,24,27)       -141.8086         estimate D2E/DX2                !
 ! D71   D(17,19,28,29)          7.0381         estimate D2E/DX2                !
 ! D72   D(17,19,28,30)        127.0381         estimate D2E/DX2                !
 ! D73   D(17,19,28,31)       -112.9619         estimate D2E/DX2                !
 ! D74   D(20,19,28,29)        127.0381         estimate D2E/DX2                !
 ! D75   D(20,19,28,30)       -112.9619         estimate D2E/DX2                !
 ! D76   D(20,19,28,31)          7.0381         estimate D2E/DX2                !
 ! D77   D(24,19,28,29)       -112.9619         estimate D2E/DX2                !
 ! D78   D(24,19,28,30)          7.0381         estimate D2E/DX2                !
 ! D79   D(24,19,28,31)        127.0381         estimate D2E/DX2                !
 --------------------------------------------------------------------------------
 Trust Radius=3.00D-01 FncErr=1.00D-07 GrdErr=1.00D-07
 Number of steps in this run= 179 maximum allowed number of steps= 186.
 GradGradGradGradGradGradGradGradGradGradGradGradGradGradGradGradGradGrad

                          Input orientation:                          
 ---------------------------------------------------------------------
 Center     Atomic      Atomic             Coordinates (Angstroms)
 Number     Number       Type             X           Y           Z
 ---------------------------------------------------------------------
      1          6           0       -4.540842    0.921104   -1.744221
      2          6           0       -3.781933   -0.248989   -1.881557
      3          6           0       -2.600669   -0.233570   -2.635412
      4          6           0       -2.178312    0.951943   -3.251931
      5          6           0       -2.937221    2.122037   -3.114596
      6          6           0       -4.118486    2.106617   -2.360742
      7          1           0       -5.442764    0.909331   -1.168636
      8          1           0       -1.276390    0.963717   -3.827516
      9          1           0       -2.614744    3.027202   -3.585324
     10          1           0       -4.697931    3.000009   -2.255885
     11          1           0       -2.021225   -1.126962   -2.740272
     12          6           0       -4.246061   -1.551751   -1.204063
     13          8           0       -3.803507   -2.814316   -1.709012
     14          1           0       -4.385055   -3.508519   -1.390446
     15          6           0       -5.072460   -1.505764   -0.130975
     16          1           0       -5.937277   -0.923410   -0.371505
     17          6           0       -5.504593   -2.935072    0.245772
     18          8           0       -6.591620   -3.129978    0.849060
     19          6           0       -4.603356   -4.129960   -0.117014
     20          6           0       -4.935182   -4.609039   -1.542488
     21          1           0       -4.220620   -5.345044   -1.846787
     22          1           0       -5.915755   -5.037059   -1.555698
     23          1           0       -4.899723   -3.777879   -2.215403
     24          6           0       -4.846934   -5.278013    0.880104
     25          1           0       -3.918316   -5.761404    1.101241
     26          1           0       -5.267579   -4.884156    1.781678
     27          1           0       -5.524147   -5.986153    0.450197
     28          6           0       -3.126716   -3.697717   -0.051444
     29          1           0       -3.062437   -2.707178    0.348056
     30          1           0       -2.585284   -4.372197    0.578499
     31          1           0       -2.706450   -3.713452   -1.035329
 ---------------------------------------------------------------------
                    Distance matrix (angstroms):
                    1          2          3          4          5
     1  C    0.000000
     2  C    1.401400   0.000000
     3  C    2.427296   1.401400   0.000000
     4  C    2.802800   2.427296   1.401400   0.000000
     5  C    2.427296   2.802800   2.427296   1.401400   0.000000
     6  C    1.401400   2.427296   2.802800   2.427296   1.401400
     7  H    1.070000   2.146700   3.396345   3.872800   3.396345
     8  H    3.872800   3.396345   2.146700   1.070000   2.146700
     9  H    3.396345   3.872800   3.396345   2.146700   1.070000
    10  H    2.146700   3.396345   3.872800   3.396345   2.146700
    11  H    3.396345   2.146700   1.070000   2.146700   3.396345
    12  C    2.548270   1.540000   2.548270   3.838989   4.342800
    13  O    3.807659   2.571214   2.994209   4.382530   5.205161
    14  H    4.446458   3.351042   3.931828   5.313244   6.063998
    15  C    2.962240   2.511867   3.741715   4.914955   5.159668
    16  H    2.690095   2.716727   4.090735   5.093488   5.079333
    17  C    4.445108   3.835118   4.902257   6.197335   6.592255
    18  O    5.228964   4.863199   6.038081   7.277190   7.526543
    19  C    5.307068   4.341692   5.053212   6.444710   7.130847
    20  C    5.547854   4.522719   5.078303   6.437938   7.195189
    21  H    6.275164   5.115020   5.419718   6.767385   7.681910
    22  H    6.117650   5.252142   5.935410   7.260430   7.909139
    23  H    4.736164   3.716715   4.245490   5.554429   6.282433
    24  C    6.738682   5.835416   6.546066   7.937734   8.623536
    25  H    7.289726   6.269162   6.801156   8.188208   8.993579
    26  H    6.830897   6.091896   6.946297   8.303062   8.859503
    27  H    7.313861   6.433306   7.152616   8.546200   9.227279
    28  C    5.118472   3.958831   4.353612   5.723804   6.579388
    29  H    4.441591   3.395812   3.902954   5.208719   5.943648
    30  H    6.102317   4.948200   5.240009   6.571476   7.479163
    31  H    5.034544   3.724952   3.831584   5.192126   6.199156
                    6          7          8          9         10
     6  C    0.000000
     7  H    2.146700   0.000000
     8  H    3.396345   4.942800   0.000000
     9  H    2.146700   4.280590   2.471400   0.000000
    10  H    1.070000   2.471400   4.280590   2.471400   0.000000
    11  H    3.872800   4.280590   2.471400   4.280590   4.942800
    12  C    3.838989   2.736837   4.693509   5.412800   4.693509
    13  O    4.973887   4.104232   5.014769   6.249563   5.908083
    14  H    5.704584   4.548115   5.966909   7.118085   6.573265
    15  C    4.351002   2.654534   5.845759   6.206502   4.995748
    16  H    4.055382   2.058859   6.101567   6.080723   4.525492
    17  C    5.842417   4.096805   7.047690   7.653577   6.491084
    18  O    6.621264   4.659075   8.178042   8.566806   7.127655
    19  C    6.645623   5.215839   7.126154   8.198093   7.444473
    20  C    6.814438   5.554261   7.047249   8.238312   7.646099
    21  H    7.470062   6.408645   7.238249   8.700336   8.368697
    22  H    7.410154   5.977717   7.917965   8.946975   8.158910
    23  H    5.937907   4.833275   6.181438   7.308005   6.781011
    24  C    8.097313   6.544890   8.594747   9.690166   8.853376
    25  H    8.598322   7.209368   8.746409  10.045037   9.414905
    26  H    8.206763   6.503809   9.032733   9.921281   8.876174
    27  H    8.681600   7.083427   9.200160  10.295174   9.421072
    28  C    6.325089   5.276086   6.277849   7.614129   7.224113
    29  H    5.623650   4.587532   5.839592   6.968143   6.482848
    30  H    7.277697   6.253976   7.042595   8.490547   8.175966
    31  H    6.133821   5.373575   5.631810   7.207447   7.108186
                   11         12         13         14         15
    11  H    0.000000
    12  C    2.736837   0.000000
    13  O    2.662177   1.430000   0.000000
    14  H    3.616840   1.970533   0.960000   0.000000
    15  C    4.032611   1.355200   2.410965   2.463700   0.000000
    16  H    4.581261   1.987002   3.149195   3.182833   1.070000
    17  C    4.931488   2.366327   2.594120   2.063836   1.540000
    18  O    6.146859   3.493961   3.796966   3.166640   2.430306
    19  C    4.750461   2.820727   2.214754   1.433693   2.665832
    20  C    4.695816   3.152210   2.128250   1.239717   3.411968
    21  H    4.840234   3.847443   2.568569   1.899503   4.290654
    22  H    5.644416   3.880580   3.070128   2.169513   3.900132
    23  H    3.948240   2.530954   1.544854   1.008956   3.088233
    24  C    6.190556   4.311593   3.723180   2.915449   3.911906
    25  H    6.311436   4.810720   4.073822   3.391436   4.578305
    26  H    6.715902   4.589452   4.314239   3.568417   3.887139
    27  H    6.786846   4.902448   4.205155   3.290010   4.540448
    28  C    3.880810   2.680790   1.996491   1.847198   2.932048
    29  H    3.622012   2.268271   2.189107   2.326769   2.390200
    30  H    4.675890   3.727013   3.023866   2.803901   3.860808
    31  H    3.172742   2.659290   1.570295   1.727953   3.360021
                   16         17         18         19         20
    16  H    0.000000
    17  C    2.148263   0.000000
    18  O    2.605165   1.258400   0.000000
    19  C    3.482252   1.540000   2.426202   0.000000
    20  C    3.994904   2.514810   3.263573   1.540000   0.000000
    21  H    4.967315   3.440255   4.218501   2.148263   1.070000
    22  H    4.280758   2.798696   3.142708   2.148263   1.070000
    23  H    3.553093   2.670875   3.559947   2.148263   1.070000
    24  C    4.660252   2.514809   2.767480   1.540000   2.514809
    25  H    5.445307   3.352052   3.759595   2.148263   3.057983
    26  H    4.557654   2.492812   2.387468   2.148263   3.352052
    27  H    5.145604   3.057984   3.075113   2.148263   2.492812
    28  C    3.962130   2.514809   3.624747   1.540000   2.514809
    29  H    3.458945   2.454898   3.589554   2.148263   3.270841
    30  H    4.902295   3.270841   4.203218   2.148263   3.174382
    31  H    4.320097   3.174382   4.357282   2.148263   2.454899
                   21         22         23         24         25
    21  H    0.000000
    22  H    1.747303   0.000000
    23  H    1.747303   1.747303   0.000000
    24  C    2.798696   2.670875   3.440256   0.000000
    25  H    2.992594   3.402024   3.987187   1.070000   0.000000
    26  H    3.804510   3.403174   4.163631   1.070000   1.747303
    27  H    2.717782   2.253386   3.517357   1.070000   1.747303
    28  C    2.670875   3.440255   2.798696   2.514810   2.492813
    29  H    3.621749   4.146571   3.330667   3.174382   3.260079
    30  H    3.082657   4.011094   3.676375   2.454899   1.995026
    31  H    2.369234   3.510322   2.491420   3.270842   3.198071
                   26         27         28         29         30
    26  H    0.000000
    27  H    1.747303   0.000000
    28  C    3.057984   3.352053   0.000000
    29  H    3.414258   4.101479   1.070000   0.000000
    30  H    2.984032   3.355329   1.070000   1.747303   0.000000
    31  H    3.983146   3.912975   1.070000   1.747303   1.747303
                   31
    31  H    0.000000
 Stoichiometry    C13H16O2
 Framework group  C1[X(C13H16O2)]
 Deg. of freedom    87
 Full point group                 C1      NOp   1
 Largest Abelian subgroup         C1      NOp   1
 Largest concise Abelian subgroup C1      NOp   1
                         Standard orientation:                         
 ---------------------------------------------------------------------
 Center     Atomic      Atomic             Coordinates (Angstroms)
 Number     Number       Type             X           Y           Z
 ---------------------------------------------------------------------
      1          6           0       -2.493374    1.233267    0.072217
      2          6           0       -1.746038    0.049888    0.001344
      3          6           0       -2.398978   -1.186997   -0.086453
      4          6           0       -3.799254   -1.240501   -0.103379
      5          6           0       -4.546590   -0.057122   -0.032505
      6          6           0       -3.893650    1.179763    0.055294
      7          1           0       -1.994840    2.177656    0.139253
      8          1           0       -4.297788   -2.184890   -0.170415
      9          1           0       -5.615732   -0.097974   -0.045425
     10          1           0       -4.464258    2.083299    0.109410
     11          1           0       -1.828371   -2.090534   -0.140566
     12          6           0       -0.207274    0.108684    0.019943
     13          8           0        0.544366   -1.032657    0.440990
     14          1           0        1.434542   -0.761074    0.676421
     15          6           0        0.436962    1.238352   -0.361342
     16          1           0        0.060358    2.069570    0.197359
     17          6           0        1.946001    1.083065   -0.096226
     18          8           0        2.663366    2.099028    0.095543
     19          6           0        2.579319   -0.320351   -0.065688
     20          6           0        2.462588   -0.905428    1.354051
     21          1           0        2.775411   -1.928638    1.344982
     22          1           0        3.085536   -0.347918    2.021898
     23          1           0        1.445714   -0.846241    1.681713
     24          6           0        4.064778   -0.221877   -0.459789
     25          1           0        4.330814   -1.065654   -1.061591
     26          1           0        4.227484    0.677979   -1.015384
     27          1           0        4.668139   -0.209536    0.423785
     28          6           0        1.843908   -1.237164   -1.060789
     29          1           0        1.146582   -0.658883   -1.630199
     30          1           0        2.554266   -1.690069   -1.720462
     31          1           0        1.319911   -1.999545   -0.523108
 ---------------------------------------------------------------------
 Rotational constants (GHZ):      1.5894624      0.3218081      0.2861135
 Standard basis: 6-311G (5D, 7F)
 There are   243 symmetry adapted basis functions of A   symmetry.
 Integral buffers will be    262144 words long.
 Raffenetti 1 integral format.
 Two-electron integral symmetry is turned on.
   243 basis functions,   470 primitive gaussians,   243 cartesian basis functions
    55 alpha electrons       55 beta electrons
       nuclear repulsion energy       996.1123186001 Hartrees.
 NAtoms=   31 NActive=   31 NUniq=   31 SFac= 7.50D-01 NAtFMM=   80 NAOKFM=F Big=F
 One-electron integrals computed using PRISM.
 NBasis=   243 RedAO= T  NBF=   243
 NBsUse=   243 1.00D-06 NBFU=   243
 Harris functional with IExCor=  205 diagonalized for initial guess.
 ExpMin= 1.03D-01 ExpMax= 8.59D+03 ExpMxC= 1.30D+03 IAcc=1 IRadAn=         1 AccDes= 0.00D+00
 HarFok:  IExCor=  205 AccDes= 0.00D+00 IRadAn=         1 IDoV= 1
 ScaDFX=  1.000000  1.000000  1.000000  1.000000
 FoFCou: FMM=F IPFlag=           0 FMFlag=      100000 FMFlg1=           0
         NFxFlg=           0 DoJE=T BraDBF=F KetDBF=T FulRan=T
         Omega=  0.000000  0.000000  1.000000  0.000000  0.000000 ICntrl=     500 IOpCl=  0
         NMat0=    1 NMatS0=    1 NMatT0=    0 NMatD0=    1 NMtDS0=    0 NMtDT0=    0
         I1Cent=           4 NGrid=           0.
 Petite list used in FoFCou.
 Initial guess orbital symmetries:
       Occupied  (A) (A) (A) (A) (A) (A) (A) (A) (A) (A) (A) (A)
                 (A) (A) (A) (A) (A) (A) (A) (A) (A) (A) (A) (A)
                 (A) (A) (A) (A) (A) (A) (A) (A) (A) (A) (A) (A)
                 (A) (A) (A) (A) (A) (A) (A) (A) (A) (A) (A) (A)
                 (A) (A) (A) (A) (A) (A) (A)
       Virtual   (A) (A) (A) (A) (A) (A) (A) (A) (A) (A) (A) (A)
                 (A) (A) (A) (A) (A) (A) (A) (A) (A) (A) (A) (A)
                 (A) (A) (A) (A) (A) (A) (A) (A) (A) (A) (A) (A)
                 (A) (A) (A) (A) (A) (A) (A) (A) (A) (A) (A) (A)
                 (A) (A) (A) (A) (A) (A) (A) (A) (A) (A) (A) (A)
                 (A) (A) (A) (A) (A) (A) (A) (A) (A) (A) (A) (A)
                 (A) (A) (A) (A) (A) (A) (A) (A) (A) (A) (A) (A)
                 (A) (A) (A) (A) (A) (A) (A) (A) (A) (A) (A) (A)
                 (A) (A) (A) (A) (A) (A) (A) (A) (A) (A) (A) (A)
                 (A) (A) (A) (A) (A) (A) (A) (A) (A) (A) (A) (A)
                 (A) (A) (A) (A) (A) (A) (A) (A) (A) (A) (A) (A)
                 (A) (A) (A) (A) (A) (A) (A) (A) (A) (A) (A) (A)
                 (A) (A) (A) (A) (A) (A) (A) (A) (A) (A) (A) (A)
                 (A) (A) (A) (A) (A) (A) (A) (A) (A) (A) (A) (A)
                 (A) (A) (A) (A) (A) (A) (A) (A) (A) (A) (A) (A)
                 (A) (A) (A) (A) (A) (A) (A) (A)
 The electronic state of the initial guess is 1-A.
 Requested convergence on RMS density matrix=1.00D-08 within 128 cycles.
 Requested convergence on MAX density matrix=1.00D-06.
 Requested convergence on             energy=1.00D-06.
 No special actions if energy rises.
 Integral accuracy reduced to 1.0D-05 until final iterations.
 Initial convergence to 1.0D-05 achieved.  Increase integral accuracy.
 SCF Done:  E(RHF) =  -650.848061113     A.U. after   18 cycles
             Convg  =    0.4885D-08             -V/T =  1.9978

 **********************************************************************

            Population analysis using the SCF density.

 **********************************************************************

 Orbital symmetries:
       Occupied  (A) (A) (A) (A) (A) (A) (A) (A) (A) (A) (A) (A)
                 (A) (A) (A) (A) (A) (A) (A) (A) (A) (A) (A) (A)
                 (A) (A) (A) (A) (A) (A) (A) (A) (A) (A) (A) (A)
                 (A) (A) (A) (A) (A) (A) (A) (A) (A) (A) (A) (A)
                 (A) (A) (A) (A) (A) (A) (A)
       Virtual   (A) (A) (A) (A) (A) (A) (A) (A) (A) (A) (A) (A)
                 (A) (A) (A) (A) (A) (A) (A) (A) (A) (A) (A) (A)
                 (A) (A) (A) (A) (A) (A) (A) (A) (A) (A) (A) (A)
                 (A) (A) (A) (A) (A) (A) (A) (A) (A) (A) (A) (A)
                 (A) (A) (A) (A) (A) (A) (A) (A) (A) (A) (A) (A)
                 (A) (A) (A) (A) (A) (A) (A) (A) (A) (A) (A) (A)
                 (A) (A) (A) (A) (A) (A) (A) (A) (A) (A) (A) (A)
                 (A) (A) (A) (A) (A) (A) (A) (A) (A) (A) (A) (A)
                 (A) (A) (A) (A) (A) (A) (A) (A) (A) (A) (A) (A)
                 (A) (A) (A) (A) (A) (A) (A) (A) (A) (A) (A) (A)
                 (A) (A) (A) (A) (A) (A) (A) (A) (A) (A) (A) (A)
                 (A) (A) (A) (A) (A) (A) (A) (A) (A) (A) (A) (A)
                 (A) (A) (A) (A) (A) (A) (A) (A) (A) (A) (A) (A)
                 (A) (A) (A) (A) (A) (A) (A) (A) (A) (A) (A) (A)
                 (A) (A) (A) (A) (A) (A) (A) (A) (A) (A) (A) (A)
                 (A) (A) (A) (A) (A) (A) (A) (A)
 The electronic state is 1-A.
 Alpha  occ. eigenvalues --  -20.56530 -20.54574 -11.36840 -11.35289 -11.28361
 Alpha  occ. eigenvalues --  -11.27835 -11.26642 -11.26363 -11.26251 -11.26031
 Alpha  occ. eigenvalues --  -11.25902 -11.24213 -11.24058 -11.21500 -11.20131
 Alpha  occ. eigenvalues --   -1.47578  -1.37341  -1.18495  -1.15704  -1.10645
 Alpha  occ. eigenvalues --   -1.03900  -1.03531  -1.01347  -0.96226  -0.89161
 Alpha  occ. eigenvalues --   -0.86255  -0.84475  -0.81653  -0.76492  -0.73029
 Alpha  occ. eigenvalues --   -0.70925  -0.68548  -0.67407  -0.66059  -0.63990
 Alpha  occ. eigenvalues --   -0.62747  -0.62108  -0.61229  -0.60132  -0.56984
 Alpha  occ. eigenvalues --   -0.56318  -0.55935  -0.53644  -0.53304  -0.52564
 Alpha  occ. eigenvalues --   -0.51407  -0.50253  -0.49429  -0.48440  -0.46807
 Alpha  occ. eigenvalues --   -0.45204  -0.40973  -0.37787  -0.35393  -0.32523
 Alpha virt. eigenvalues --    0.05705   0.11354   0.14033   0.14721   0.15872
 Alpha virt. eigenvalues --    0.16881   0.17766   0.18491   0.19916   0.20200
 Alpha virt. eigenvalues --    0.20937   0.21622   0.22070   0.22902   0.23856
 Alpha virt. eigenvalues --    0.26313   0.27336   0.27998   0.29458   0.31180
 Alpha virt. eigenvalues --    0.32425   0.33113   0.36047   0.37583   0.38317
 Alpha virt. eigenvalues --    0.38643   0.40644   0.42150   0.43282   0.43779
 Alpha virt. eigenvalues --    0.45112   0.46176   0.48062   0.50041   0.50270
 Alpha virt. eigenvalues --    0.50442   0.52618   0.54346   0.54953   0.55494
 Alpha virt. eigenvalues --    0.56550   0.57244   0.57995   0.58466   0.59810
 Alpha virt. eigenvalues --    0.61580   0.62122   0.63137   0.63231   0.63960
 Alpha virt. eigenvalues --    0.66310   0.67026   0.68533   0.70088   0.71647
 Alpha virt. eigenvalues --    0.72696   0.72751   0.74144   0.76116   0.76593
 Alpha virt. eigenvalues --    0.77365   0.78664   0.79468   0.79777   0.80303
 Alpha virt. eigenvalues --    0.81173   0.81517   0.81771   0.82243   0.82914
 Alpha virt. eigenvalues --    0.83650   0.84193   0.84714   0.85078   0.85452
 Alpha virt. eigenvalues --    0.86235   0.86714   0.88819   0.89050   0.90325
 Alpha virt. eigenvalues --    0.90809   0.93631   0.94614   0.95041   0.95618
 Alpha virt. eigenvalues --    0.98936   1.00902   1.01775   1.03326   1.05587
 Alpha virt. eigenvalues --    1.07635   1.09612   1.09989   1.11192   1.13896
 Alpha virt. eigenvalues --    1.16520   1.17364   1.20616   1.23532   1.25552
 Alpha virt. eigenvalues --    1.26774   1.29006   1.30189   1.37688   1.39022
 Alpha virt. eigenvalues --    1.41369   1.45635   1.49610   1.54742   1.56481
 Alpha virt. eigenvalues --    1.94590   2.05985   2.54493   2.55240   2.55599
 Alpha virt. eigenvalues --    2.57284   2.59042   2.60635   2.62467   2.64893
 Alpha virt. eigenvalues --    2.66318   2.67075   2.69459   2.70102   2.73069
 Alpha virt. eigenvalues --    2.73833   2.85384   2.90670   2.93521   2.94560
 Alpha virt. eigenvalues --    2.96141   3.01840   3.03229   3.04143   3.07399
 Alpha virt. eigenvalues --    3.10054   3.11515   3.15072   3.18463   3.21094
 Alpha virt. eigenvalues --    3.21340   3.23157   3.25062   3.25954   3.27683
 Alpha virt. eigenvalues --    3.29299   3.29759   3.34434   3.39231   3.40048
 Alpha virt. eigenvalues --    3.40997   3.44903   3.45537   3.48028   3.51420
 Alpha virt. eigenvalues --    3.53470   3.54264   3.56075   3.57402   3.60726
 Alpha virt. eigenvalues --    3.63594   3.64959   3.65495   3.66523   3.69076
 Alpha virt. eigenvalues --    3.76730   3.91782   5.44759   5.50507   5.52733
 Alpha virt. eigenvalues --    5.58613   5.64138   5.82969  24.25505  24.42713
 Alpha virt. eigenvalues --   24.49147  24.50690  24.53886  24.64273  24.69649
 Alpha virt. eigenvalues --   24.73706  24.74165  24.78499  24.81367  24.83591
 Alpha virt. eigenvalues --   25.01013  51.61265  51.64369
          Condensed to atoms (all electrons):
              1          2          3          4          5          6
     1  C    5.072659   0.446938  -0.074354  -0.029353  -0.089510   0.460330
     2  C    0.446938   5.429655   0.471330  -0.055287  -0.011209  -0.058886
     3  C   -0.074354   0.471330   5.062413   0.445711  -0.085617  -0.030450
     4  C   -0.029353  -0.055287   0.445711   5.074224   0.489605  -0.073270
     5  C   -0.089510  -0.011209  -0.085617   0.489605   5.003097   0.490962
     6  C    0.460330  -0.058886  -0.030450  -0.073270   0.490962   5.050780
     7  H    0.392098  -0.045581   0.003883  -0.000187   0.004487  -0.028528
     8  H   -0.000197   0.005432  -0.037686   0.399011  -0.038689   0.005586
     9  H    0.007545  -0.001497   0.007112  -0.041195   0.399033  -0.040953
    10  H   -0.036457   0.005594  -0.000238   0.005467  -0.038544   0.397968
    11  H    0.004032  -0.038039   0.397342  -0.038240   0.004615  -0.000383
    12  C   -0.035519   0.092396  -0.049639   0.008397   0.000547   0.010689
    13  O    0.002088  -0.096495   0.011061   0.000365   0.000003  -0.000095
    14  H    0.000914   0.005109  -0.000810   0.000071   0.000005   0.000014
    15  C    0.001232  -0.091162   0.004621  -0.000594   0.000053   0.001195
    16  H    0.007723  -0.030954  -0.000551   0.000098  -0.000074   0.000958
    17  C   -0.001965   0.019381  -0.000067   0.000006   0.000002  -0.000071
    18  O    0.000021  -0.000397   0.000001   0.000000   0.000000   0.000000
    19  C    0.000042  -0.007789   0.000299   0.000002   0.000000   0.000003
    20  C   -0.000022  -0.000769   0.000131   0.000000   0.000000  -0.000001
    21  H   -0.000001  -0.000003   0.000005   0.000000   0.000000   0.000000
    22  H   -0.000002   0.000083  -0.000008   0.000000   0.000000   0.000000
    23  H    0.000014  -0.002514   0.000360  -0.000013  -0.000002  -0.000006
    24  C   -0.000001   0.000101  -0.000001   0.000000   0.000000   0.000000
    25  H    0.000000  -0.000002   0.000000   0.000000   0.000000   0.000000
    26  H    0.000000   0.000012   0.000000   0.000000   0.000000   0.000000
    27  H    0.000000  -0.000004   0.000000   0.000000   0.000000   0.000000
    28  C    0.000164  -0.000784  -0.001012  -0.000007   0.000000   0.000001
    29  H    0.000001   0.001764   0.000214   0.000018  -0.000003  -0.000006
    30  H   -0.000006  -0.000224   0.000017   0.000001   0.000000   0.000000
    31  H   -0.000020  -0.000068   0.000145  -0.000021   0.000001  -0.000003
              7          8          9         10         11         12
     1  C    0.392098  -0.000197   0.007545  -0.036457   0.004032  -0.035519
     2  C   -0.045581   0.005432  -0.001497   0.005594  -0.038039   0.092396
     3  C    0.003883  -0.037686   0.007112  -0.000238   0.397342  -0.049639
     4  C   -0.000187   0.399011  -0.041195   0.005467  -0.038240   0.008397
     5  C    0.004487  -0.038689   0.399033  -0.038544   0.004615   0.000547
     6  C   -0.028528   0.005586  -0.040953   0.397968  -0.000383   0.010689
     7  H    0.481580   0.000016  -0.000154  -0.003351  -0.000218  -0.003464
     8  H    0.000016   0.503578  -0.003959  -0.000192  -0.003298  -0.000418
     9  H   -0.000154  -0.003959   0.505806  -0.003880  -0.000138  -0.000037
    10  H   -0.003351  -0.000192  -0.003880   0.502183   0.000013  -0.000301
    11  H   -0.000218  -0.003298  -0.000138   0.000013   0.468868  -0.002629
    12  C   -0.003464  -0.000418  -0.000037  -0.000301  -0.002629   5.256140
    13  O    0.000152  -0.000020   0.000000   0.000001   0.003261   0.199861
    14  H    0.000149   0.000003   0.000000   0.000000  -0.000431  -0.005279
    15  C    0.002187   0.000001   0.000000   0.000003   0.000984   0.183132
    16  H   -0.001249   0.000002  -0.000001   0.000026  -0.000099  -0.007495
    17  C   -0.000446   0.000000   0.000000   0.000001   0.000031  -0.077734
    18  O   -0.000169   0.000000   0.000000   0.000000   0.000000   0.005183
    19  C   -0.000130   0.000000   0.000000   0.000000  -0.000096   0.003360
    20  C    0.000001   0.000000   0.000000   0.000000   0.000179   0.043918
    21  H   -0.000001   0.000000   0.000000   0.000000  -0.000013  -0.000131
    22  H    0.000000   0.000000   0.000000   0.000000  -0.000004  -0.002158
    23  H   -0.000028  -0.000001   0.000000   0.000000   0.000185   0.016502
    24  C    0.000001   0.000000   0.000000   0.000000  -0.000001   0.001199
    25  H    0.000000   0.000000   0.000000   0.000000   0.000000   0.000065
    26  H    0.000000   0.000000   0.000000   0.000000   0.000000  -0.000165
    27  H    0.000000   0.000000   0.000000   0.000000   0.000000  -0.000171
    28  C    0.000008  -0.000001   0.000000   0.000000   0.000198  -0.050165
    29  H   -0.000036   0.000000   0.000000   0.000000   0.000022   0.005181
    30  H    0.000000   0.000000   0.000000   0.000000  -0.000014   0.000640
    31  H   -0.000005  -0.000002   0.000000   0.000000   0.000614   0.005120
             13         14         15         16         17         18
     1  C    0.002088   0.000914   0.001232   0.007723  -0.001965   0.000021
     2  C   -0.096495   0.005109  -0.091162  -0.030954   0.019381  -0.000397
     3  C    0.011061  -0.000810   0.004621  -0.000551  -0.000067   0.000001
     4  C    0.000365   0.000071  -0.000594   0.000098   0.000006   0.000000
     5  C    0.000003   0.000005   0.000053  -0.000074   0.000002   0.000000
     6  C   -0.000095   0.000014   0.001195   0.000958  -0.000071   0.000000
     7  H    0.000152   0.000149   0.002187  -0.001249  -0.000446  -0.000169
     8  H   -0.000020   0.000003   0.000001   0.000002   0.000000   0.000000
     9  H    0.000000   0.000000   0.000000  -0.000001   0.000000   0.000000
    10  H    0.000001   0.000000   0.000003   0.000026   0.000001   0.000000
    11  H    0.003261  -0.000431   0.000984  -0.000099   0.000031   0.000000
    12  C    0.199861  -0.005279   0.183132  -0.007495  -0.077734   0.005183
    13  O    9.188943   0.230715  -0.134479   0.006932   0.014171   0.000262
    14  H    0.230715   0.689119  -0.011847   0.001161  -0.046133  -0.000712
    15  C   -0.134479  -0.011847   6.238444   0.297821   0.176160  -0.102658
    16  H    0.006932   0.001161   0.297821   0.522163  -0.037206   0.012188
    17  C    0.014171  -0.046133   0.176160  -0.037206   5.131946   0.555723
    18  O    0.000262  -0.000712  -0.102658   0.012188   0.555723   8.152183
    19  C   -0.089187   0.077845  -0.204262   0.013131  -0.192710  -0.127635
    20  C   -0.279122  -0.112849   0.002725  -0.000894  -0.048744   0.003619
    21  H    0.009286  -0.026550  -0.000847   0.000081   0.004762  -0.000276
    22  H    0.009347  -0.000338   0.000181  -0.000048  -0.001557   0.003647
    23  H   -0.077855  -0.071562  -0.012866   0.000297   0.023120   0.001022
    24  C    0.006711  -0.000160   0.005434  -0.000284  -0.032016  -0.000041
    25  H   -0.000176   0.000496  -0.000293   0.000007   0.007625   0.000297
    26  H   -0.000167   0.000712   0.001888  -0.000092  -0.000602   0.005348
    27  H   -0.000024  -0.000939  -0.000020  -0.000001  -0.002890   0.000860
    28  C   -0.215784  -0.120480   0.036805  -0.000240  -0.065510   0.005662
    29  H   -0.018369  -0.004199  -0.025074   0.000994   0.006481   0.000203
    30  H    0.011779   0.008245   0.000421   0.000021   0.002470  -0.000124
    31  H   -0.086127  -0.038585  -0.000322  -0.000063   0.007204  -0.000215
             19         20         21         22         23         24
     1  C    0.000042  -0.000022  -0.000001  -0.000002   0.000014  -0.000001
     2  C   -0.007789  -0.000769  -0.000003   0.000083  -0.002514   0.000101
     3  C    0.000299   0.000131   0.000005  -0.000008   0.000360  -0.000001
     4  C    0.000002   0.000000   0.000000   0.000000  -0.000013   0.000000
     5  C    0.000000   0.000000   0.000000   0.000000  -0.000002   0.000000
     6  C    0.000003  -0.000001   0.000000   0.000000  -0.000006   0.000000
     7  H   -0.000130   0.000001  -0.000001   0.000000  -0.000028   0.000001
     8  H    0.000000   0.000000   0.000000   0.000000  -0.000001   0.000000
     9  H    0.000000   0.000000   0.000000   0.000000   0.000000   0.000000
    10  H    0.000000   0.000000   0.000000   0.000000   0.000000   0.000000
    11  H   -0.000096   0.000179  -0.000013  -0.000004   0.000185  -0.000001
    12  C    0.003360   0.043918  -0.000131  -0.002158   0.016502   0.001199
    13  O   -0.089187  -0.279122   0.009286   0.009347  -0.077855   0.006711
    14  H    0.077845  -0.112849  -0.026550  -0.000338  -0.071562  -0.000160
    15  C   -0.204262   0.002725  -0.000847   0.000181  -0.012866   0.005434
    16  H    0.013131  -0.000894   0.000081  -0.000048   0.000297  -0.000284
    17  C   -0.192710  -0.048744   0.004762  -0.001557   0.023120  -0.032016
    18  O   -0.127635   0.003619  -0.000276   0.003647   0.001022  -0.000041
    19  C    7.708533  -0.125159  -0.042673  -0.037901  -0.131803   0.087741
    20  C   -0.125159   5.977027   0.393320   0.356239   0.493207  -0.064343
    21  H   -0.042673   0.393320   0.451284  -0.012514  -0.015316   0.004986
    22  H   -0.037901   0.356239  -0.012514   0.475891  -0.015932  -0.001218
    23  H   -0.131803   0.493207  -0.015316  -0.015932   0.557815  -0.000794
    24  C    0.087741  -0.064343   0.004986  -0.001218  -0.000794   5.285620
    25  H   -0.061707  -0.001589   0.001223  -0.000272  -0.000448   0.406975
    26  H   -0.053333   0.005195  -0.000283   0.000131  -0.000214   0.403700
    27  H   -0.064005  -0.005752  -0.000830   0.001796   0.000603   0.408887
    28  C   -0.198158  -0.019245  -0.008680   0.008419   0.042045  -0.053800
    29  H   -0.069958   0.006050   0.000319  -0.000271  -0.000180   0.001372
    30  H   -0.049158   0.000883   0.000150  -0.000321  -0.001489  -0.006817
    31  H   -0.053282   0.011959   0.002463   0.000199   0.009164   0.001131
             25         26         27         28         29         30
     1  C    0.000000   0.000000   0.000000   0.000164   0.000001  -0.000006
     2  C   -0.000002   0.000012  -0.000004  -0.000784   0.001764  -0.000224
     3  C    0.000000   0.000000   0.000000  -0.001012   0.000214   0.000017
     4  C    0.000000   0.000000   0.000000  -0.000007   0.000018   0.000001
     5  C    0.000000   0.000000   0.000000   0.000000  -0.000003   0.000000
     6  C    0.000000   0.000000   0.000000   0.000001  -0.000006   0.000000
     7  H    0.000000   0.000000   0.000000   0.000008  -0.000036   0.000000
     8  H    0.000000   0.000000   0.000000  -0.000001   0.000000   0.000000
     9  H    0.000000   0.000000   0.000000   0.000000   0.000000   0.000000
    10  H    0.000000   0.000000   0.000000   0.000000   0.000000   0.000000
    11  H    0.000000   0.000000   0.000000   0.000198   0.000022  -0.000014
    12  C    0.000065  -0.000165  -0.000171  -0.050165   0.005181   0.000640
    13  O   -0.000176  -0.000167  -0.000024  -0.215784  -0.018369   0.011779
    14  H    0.000496   0.000712  -0.000939  -0.120480  -0.004199   0.008245
    15  C   -0.000293   0.001888  -0.000020   0.036805  -0.025074   0.000421
    16  H    0.000007  -0.000092  -0.000001  -0.000240   0.000994   0.000021
    17  C    0.007625  -0.000602  -0.002890  -0.065510   0.006481   0.002470
    18  O    0.000297   0.005348   0.000860   0.005662   0.000203  -0.000124
    19  C   -0.061707  -0.053333  -0.064005  -0.198158  -0.069958  -0.049158
    20  C   -0.001589   0.005195  -0.005752  -0.019245   0.006050   0.000883
    21  H    0.001223  -0.000283  -0.000830  -0.008680   0.000319   0.000150
    22  H   -0.000272   0.000131   0.001796   0.008419  -0.000271  -0.000321
    23  H   -0.000448  -0.000214   0.000603   0.042045  -0.000180  -0.001489
    24  C    0.406975   0.403700   0.408887  -0.053800   0.001372  -0.006817
    25  H    0.536597  -0.025504  -0.029020  -0.011707   0.000729  -0.004270
    26  H   -0.025504   0.462318  -0.019780   0.001173   0.000151   0.000552
    27  H   -0.029020  -0.019780   0.526080   0.007241  -0.000450   0.001379
    28  C   -0.011707   0.001173   0.007241   5.916909   0.417611   0.389054
    29  H    0.000729   0.000151  -0.000450   0.417611   0.492847  -0.023950
    30  H   -0.004270   0.000552   0.001379   0.389054  -0.023950   0.559381
    31  H    0.001187  -0.000237  -0.000343   0.439102  -0.013314  -0.032560
             31
     1  C   -0.000020
     2  C   -0.000068
     3  C    0.000145
     4  C   -0.000021
     5  C    0.000001
     6  C   -0.000003
     7  H   -0.000005
     8  H   -0.000002
     9  H    0.000000
    10  H    0.000000
    11  H    0.000614
    12  C    0.005120
    13  O   -0.086127
    14  H   -0.038585
    15  C   -0.000322
    16  H   -0.000063
    17  C    0.007204
    18  O   -0.000215
    19  C   -0.053282
    20  C    0.011959
    21  H    0.002463
    22  H    0.000199
    23  H    0.009164
    24  C    0.001131
    25  H    0.001187
    26  H   -0.000237
    27  H   -0.000343
    28  C    0.439102
    29  H   -0.013314
    30  H   -0.032560
    31  H    0.493976
 Mulliken atomic charges:
              1
     1  C   -0.128393
     2  C   -0.036132
     3  C   -0.124213
     4  C   -0.184810
     5  C   -0.128759
     6  C   -0.185834
     7  H    0.198985
     8  H    0.170833
     9  H    0.172320
    10  H    0.171706
    11  H    0.203258
    12  C    0.402973
    13  O   -0.697039
    14  H    0.426314
    15  C   -0.368860
    16  H    0.215645
    17  C    0.558570
    18  O   -0.513994
    19  C   -0.382010
    20  C   -0.635964
    21  H    0.240239
    22  H    0.216611
    23  H    0.186687
    24  C   -0.454381
    25  H    0.179787
    26  H    0.219200
    27  H    0.177383
    28  C   -0.518819
    29  H    0.221854
    30  H    0.143941
    31  H    0.252900
 Sum of Mulliken atomic charges =   0.00000
 Mulliken charges with hydrogens summed into heavy atoms:
              1
     1  C    0.070592
     2  C   -0.036132
     3  C    0.079045
     4  C   -0.013977
     5  C    0.043561
     6  C   -0.014128
    12  C    0.402973
    13  O   -0.270725
    15  C   -0.153215
    17  C    0.558570
    18  O   -0.513994
    19  C   -0.382010
    20  C    0.007573
    24  C    0.121991
    28  C    0.099877
 Sum of Mulliken charges with hydrogens summed into heavy atoms =   0.00000
 Electronic spatial extent (au):  <R**2>=           3860.5738
 Charge=              0.0000 electrons
 Dipole moment (field-independent basis, Debye):
    X=             -2.7343    Y=             -2.9937    Z=              1.1995  Tot=              4.2281
 Quadrupole moment (field-independent basis, Debye-Ang):
   XX=            -84.2705   YY=            -96.4622   ZZ=            -95.6204
   XY=            -12.0988   XZ=              1.7840   YZ=              0.9259
 Traceless Quadrupole moment (field-independent basis, Debye-Ang):
   XX=              7.8472   YY=             -4.3445   ZZ=             -3.5027
   XY=            -12.0988   XZ=              1.7840   YZ=              0.9259
 Octapole moment (field-independent basis, Debye-Ang**2):
  XXX=            -53.5928  YYY=            -21.6300  ZZZ=              9.0116  XYY=            -36.0928
  XXY=            -34.2003  XXZ=              2.7218  XZZ=             25.1688  YZZ=             -1.1062
  YYZ=              3.3003  XYZ=             -7.5239
 Hexadecapole moment (field-independent basis, Debye-Ang**3):
 XXXX=          -3922.7504 YYYY=           -796.9134 ZZZZ=           -294.4383 XXXY=            -83.7560
 XXXZ=             13.0284 YYYX=            -59.1841 YYYZ=              1.7034 ZZZX=             11.7776
 ZZZY=             -1.1596 XXYY=           -850.5392 XXZZ=           -797.4884 YYZZ=           -187.7988
 XXYZ=             -7.5642 YYXZ=              0.9719 ZZXY=              4.1835
 N-N= 9.961123186001D+02 E-N=-3.513501809586D+03  KE= 6.523102533972D+02
 Calling FoFJK, ICntrl=      2127 FMM=F ISym2X=0 I1Cent= 0 IOpClX= 0 NMat=1 NMatS=1 NMatT=0.
 ***** Axes restored to original set *****
 -------------------------------------------------------------------
 Center     Atomic                   Forces (Hartrees/Bohr)
 Number     Number              X              Y              Z
 -------------------------------------------------------------------
      1        6           0.011220759    0.006407617   -0.007606450
      2        6          -0.003362483   -0.033165519   -0.002244293
      3        6          -0.005476783    0.011655475   -0.002156681
      4        6          -0.012800640    0.000619111    0.009345545
      5        6          -0.003047797   -0.013108718    0.005803956
      6        6           0.006675184   -0.015087555    0.000068306
      7        1           0.001753328    0.002761369   -0.001335354
      8        1           0.000112745   -0.000362012    0.000248257
      9        1          -0.000020641    0.000196326   -0.000111300
     10        1          -0.000486346   -0.000480505    0.000194137
     11        1          -0.001731807   -0.000200849   -0.000161602
     12        6           0.035694733    0.011331073   -0.040183458
     13        8           0.015608397    0.273273663   -0.081668792
     14        1           0.046643096    0.075446909   -0.002158922
     15        6          -0.035101930   -0.084726678   -0.045676546
     16        1           0.001540097    0.023841866    0.035459485
     17        6          -0.047868204    0.025591252    0.037119675
     18        8           0.046159944    0.008352328   -0.028353987
     19        6          -0.002648664   -0.030658428    0.071209881
     20        6          -0.078680252   -0.106511440   -0.010604554
     21        1           0.003334702   -0.002348226   -0.002905003
     22        1          -0.003745479   -0.003339946    0.001841471
     23        1          -0.058336601   -0.061002386   -0.056543849
     24        6          -0.004212382    0.005426248   -0.007225423
     25        1           0.002128957   -0.006389616    0.000747236
     26        1          -0.001929944   -0.003009479    0.005521517
     27        1          -0.006401461   -0.006280041    0.004367467
     28        6           0.046145119   -0.052656853    0.063271032
     29        1           0.013327475   -0.003764073    0.004988000
     30        1           0.003171283   -0.000988527    0.013322537
     31        1           0.032335593   -0.020822386    0.035427714
 -------------------------------------------------------------------
 Cartesian Forces:  Max     0.273273663 RMS     0.041578494

 GradGradGradGradGradGradGradGradGradGradGradGradGradGradGradGradGradGrad
 Berny optimization.
 Internal  Forces:  Max     0.241461753 RMS     0.032936150
 Search for a local minimum.
 Step number   1 out of a maximum of  179
 All quantities printed in internal units (Hartrees-Bohrs-Radians)
 Mixed Optimization -- RFO/linear search
 Second derivative matrix not updated -- first step.
     Eigenvalues ---    0.00237   0.00237   0.00237   0.00324   0.00429
     Eigenvalues ---    0.00815   0.01396   0.01506   0.01928   0.02009
     Eigenvalues ---    0.02070   0.02070   0.02070   0.02070   0.02070
     Eigenvalues ---    0.02070   0.02070   0.02070   0.03646   0.04312
     Eigenvalues ---    0.04562   0.04814   0.05110   0.05720   0.05720
     Eigenvalues ---    0.05720   0.06109   0.06366   0.07509   0.09838
     Eigenvalues ---    0.10273   0.10962   0.11808   0.12529   0.15323
     Eigenvalues ---    0.15554   0.16000   0.16000   0.16000   0.16000
     Eigenvalues ---    0.16000   0.16000   0.16000   0.16000   0.16000
     Eigenvalues ---    0.16000   0.16132   0.19848   0.21600   0.22000
     Eigenvalues ---    0.22000   0.23485   0.23535   0.25000   0.25000
     Eigenvalues ---    0.25000   0.27303   0.27777   0.27936   0.28295
     Eigenvalues ---    0.28519   0.28519   0.37188   0.37230   0.37230
     Eigenvalues ---    0.37230   0.37230   0.37230   0.37230   0.37230
     Eigenvalues ---    0.37230   0.37230   0.37230   0.37230   0.37230
     Eigenvalues ---    0.37230   0.37230   0.39629   0.41268   0.41459
     Eigenvalues ---    0.45389   0.45389   0.45389   0.45389   0.51462
     Eigenvalues ---    0.53947   0.802091000.000001000.000001000.00000
     Eigenvalues --- 1000.000001000.000001000.000001000.000001000.00000
     Eigenvalues --- 1000.000001000.000001000.000001000.000001000.00000
     Eigenvalues --- 1000.000001000.000001000.000001000.000001000.00000
     Eigenvalues --- 1000.000001000.000001000.000001000.000001000.00000
     Eigenvalues --- 1000.000001000.000001000.000001000.000001000.00000
     Eigenvalues --- 1000.000001000.000001000.000001000.000001000.00000
     Eigenvalues --- 1000.000001000.000001000.000001000.000001000.00000
     Eigenvalues --- 1000.000001000.000001000.000001000.000001000.00000
     Eigenvalues --- 1000.000001000.000001000.000001000.000001000.00000
     Eigenvalues --- 1000.000001000.000001000.000001000.000001000.00000
     Eigenvalues --- 1000.000001000.000001000.000001000.000001000.00000
     Eigenvalues --- 1000.000001000.000001000.000001000.000001000.00000
     Eigenvalues --- 1000.000001000.000001000.000001000.000001000.00000
     Eigenvalues --- 1000.000001000.000001000.000001000.000001000.00000
     Eigenvalues --- 1000.000001000.000001000.000001000.000001000.00000
     Eigenvalues --- 1000.000001000.000001000.000001000.00000
 RFO step:  Lambda=-3.31184025D-01 EMin= 2.36824077D-03
 Linear search not attempted -- first point.
 Maximum step size (   0.300) exceeded in Quadratic search.
    -- Step size scaled by   0.377
 Iteration  1 RMS(Cart)=  0.04791420 RMS(Int)=  0.00170515
 Iteration  2 RMS(Cart)=  0.00230073 RMS(Int)=  0.00060191
 Iteration  3 RMS(Cart)=  0.00000769 RMS(Int)=  0.00060190
 Iteration  4 RMS(Cart)=  0.00000002 RMS(Int)=  0.00060190
 Variable       Old X    -DE/DX   Delta X   Delta X   Delta X     New X
                                 (Linear)    (Quad)   (Total)
    R1        2.64826  -0.00937   0.00000  -0.00446  -0.00446   2.64380
    R2        2.64826  -0.01785   0.00000  -0.00858  -0.00858   2.63969
    R3        2.02201  -0.00223   0.00000  -0.00119  -0.00119   2.02081
    R4        2.64826  -0.01271   0.00000  -0.00607  -0.00607   2.64219
    R5        2.91018  -0.03754   0.00000  -0.02299  -0.02299   2.88719
    R6        2.64826  -0.01575   0.00000  -0.00758  -0.00758   2.64068
    R7        2.02201  -0.00075   0.00000  -0.00040  -0.00040   2.02160
    R8        2.64826  -0.01577   0.00000  -0.00762  -0.00762   2.64064
    R9        2.02201  -0.00004   0.00000  -0.00002  -0.00002   2.02198
   R10        2.64826  -0.01363   0.00000  -0.00659  -0.00659   2.64167
   R11        2.02201   0.00021   0.00000   0.00011   0.00011   2.02212
   R12        2.02201  -0.00012   0.00000  -0.00006  -0.00006   2.02194
   R13        2.70231  -0.06170   0.00000  -0.03100  -0.03011   2.67220
   R14        2.56096   0.04954   0.00000   0.02174   0.02249   2.58344
   R15        1.81414   0.16146   0.00000   0.06920   0.06846   1.88260
   R16        2.96743   0.12726   0.00000   0.10735   0.10975   3.07718
   R17        2.34273   0.24146   0.00000   0.16642   0.16604   2.50877
   R18        2.02201   0.00376   0.00000   0.00202   0.00202   2.02402
   R19        2.91018  -0.00503   0.00000  -0.00335  -0.00356   2.90662
   R20        2.37803  -0.05476   0.00000  -0.01824  -0.01824   2.35979
   R21        2.91018   0.00292   0.00000   0.00137   0.00041   2.91059
   R22        2.91018   0.07997   0.00000   0.04966   0.04837   2.95855
   R23        2.91018   0.01150   0.00000   0.00704   0.00704   2.91722
   R24        2.91018   0.00697   0.00000   0.00605   0.00494   2.91512
   R25        2.02201   0.00467   0.00000   0.00250   0.00250   2.02451
   R26        2.02201   0.00475   0.00000   0.00255   0.00255   2.02455
   R27        2.02201  -0.01376   0.00000  -0.00738  -0.00738   2.01463
   R28        2.02201   0.00489   0.00000   0.00262   0.00262   2.02463
   R29        2.02201   0.00430   0.00000   0.00231   0.00231   2.02432
   R30        2.02201   0.00645   0.00000   0.00346   0.00346   2.02547
   R31        2.02201  -0.00082   0.00000  -0.00044  -0.00044   2.02157
   R32        2.02201   0.01007   0.00000   0.00540   0.00540   2.02741
   R33        2.02201  -0.00536   0.00000  -0.00320  -0.00267   2.01934
    A1        2.09440  -0.00048   0.00000  -0.00026  -0.00026   2.09413
    A2        2.09440   0.00297   0.00000   0.00223   0.00223   2.09662
    A3        2.09440  -0.00249   0.00000  -0.00197  -0.00197   2.09243
    A4        2.09440  -0.00190   0.00000  -0.00113  -0.00113   2.09327
    A5        2.09440   0.00899   0.00000   0.00578   0.00578   2.10018
    A6        2.09440  -0.00709   0.00000  -0.00466  -0.00466   2.08974
    A7        2.09440   0.00094   0.00000   0.00068   0.00068   2.09508
    A8        2.09440  -0.00163   0.00000  -0.00124  -0.00124   2.09316
    A9        2.09440   0.00070   0.00000   0.00055   0.00056   2.09495
   A10        2.09440   0.00015   0.00000   0.00002   0.00002   2.09442
   A11        2.09440  -0.00050   0.00000  -0.00033  -0.00033   2.09406
   A12        2.09440   0.00034   0.00000   0.00031   0.00031   2.09471
   A13        2.09440   0.00000   0.00000  -0.00013  -0.00013   2.09426
   A14        2.09440   0.00007   0.00000   0.00012   0.00012   2.09451
   A15        2.09440  -0.00007   0.00000   0.00001   0.00001   2.09441
   A16        2.09440   0.00129   0.00000   0.00082   0.00082   2.09522
   A17        2.09440  -0.00132   0.00000  -0.00093  -0.00093   2.09346
   A18        2.09440   0.00003   0.00000   0.00011   0.00011   2.09450
   A19        2.09241  -0.03615   0.00000  -0.02405  -0.02471   2.06770
   A20        2.09836   0.02576   0.00000   0.01616   0.01550   2.11385
   A21        2.09241   0.01039   0.00000   0.00790   0.00921   2.10163
   A22        1.91114  -0.04596   0.00000  -0.03445  -0.03369   1.87744
   A23        2.62610   0.10054   0.00000   0.06654   0.06625   2.69236
   A24        1.91063  -0.00783   0.00000  -0.00161  -0.00171   1.90892
   A25        1.91063   0.08056   0.00000   0.05519   0.05570   1.96633
   A26        1.91063  -0.01666   0.00000  -0.00808  -0.00860   1.90203
   A27        2.09836  -0.00549   0.00000  -0.00328  -0.00233   2.09602
   A28        2.09241   0.01078   0.00000   0.00643   0.00452   2.09693
   A29        2.09241  -0.00529   0.00000  -0.00315  -0.00221   2.09020
   A30        1.91063  -0.01430   0.00000  -0.01260  -0.01206   1.89857
   A31        1.91063   0.01706   0.00000   0.01357   0.01366   1.92429
   A32        1.91063  -0.00577   0.00000  -0.00346  -0.00418   1.90645
   A33        1.91063  -0.00985   0.00000  -0.00775  -0.00787   1.90276
   A34        1.91063   0.02380   0.00000   0.02101   0.02007   1.93070
   A35        1.91063  -0.01094   0.00000  -0.01078  -0.00947   1.90116
   A36        1.06409   0.06628   0.00000   0.05628   0.05410   1.11820
   A37        1.92747  -0.01329   0.00000  -0.00764  -0.00797   1.91950
   A38        2.43918   0.00685   0.00000   0.00544   0.00647   2.44564
   A39        0.89292   0.04912   0.00000   0.03590   0.03690   0.92981
   A40        1.91063  -0.00993   0.00000  -0.00694  -0.00723   1.90341
   A41        1.91063  -0.04094   0.00000  -0.03342  -0.03216   1.87847
   A42        1.91063   0.10970   0.00000   0.08724   0.08603   1.99667
   A43        1.91063   0.00465   0.00000   0.00048  -0.00018   1.91045
   A44        1.91063  -0.02612   0.00000  -0.01771  -0.01830   1.89234
   A45        1.91063  -0.03736   0.00000  -0.02966  -0.02932   1.88131
   A46        1.91063   0.00282   0.00000   0.00222   0.00221   1.91284
   A47        1.91063   0.00491   0.00000   0.00376   0.00375   1.91439
   A48        1.91063   0.00765   0.00000   0.00584   0.00583   1.91646
   A49        1.91063  -0.00336   0.00000  -0.00250  -0.00250   1.90813
   A50        1.91063  -0.00508   0.00000  -0.00388  -0.00389   1.90674
   A51        1.91063  -0.00694   0.00000  -0.00544  -0.00545   1.90518
   A52        1.91063   0.01936   0.00000   0.01331   0.01323   1.92387
   A53        1.91063   0.01515   0.00000   0.01234   0.01295   1.92358
   A54        1.91063  -0.06291   0.00000  -0.04492  -0.04685   1.86378
   A55        1.91063  -0.01164   0.00000  -0.00811  -0.00825   1.90238
   A56        1.91063  -0.00202   0.00000  -0.00551  -0.00551   1.90512
   A57        1.91063   0.04205   0.00000   0.03289   0.03431   1.94495
    D1        0.00000  -0.00011   0.00000  -0.00012  -0.00012  -0.00012
    D2       -3.14159  -0.00037   0.00000  -0.00040  -0.00040   3.14119
    D3        3.14159   0.00014   0.00000   0.00016   0.00016  -3.14144
    D4        0.00000  -0.00012   0.00000  -0.00013  -0.00013  -0.00013
    D5        0.00000  -0.00025   0.00000  -0.00027  -0.00027  -0.00027
    D6        3.14159  -0.00006   0.00000  -0.00007  -0.00007   3.14152
    D7        3.14159  -0.00050   0.00000  -0.00054  -0.00054   3.14105
    D8        0.00000  -0.00032   0.00000  -0.00034  -0.00034  -0.00034
    D9        0.00000   0.00050   0.00000   0.00054   0.00054   0.00054
   D10       -3.14159   0.00046   0.00000   0.00050   0.00050  -3.14110
   D11        3.14159   0.00076   0.00000   0.00082   0.00082  -3.14077
   D12        0.00000   0.00072   0.00000   0.00078   0.00078   0.00078
   D13        2.73702   0.00338   0.00000   0.00328   0.00336   2.74039
   D14       -0.40457   0.00120   0.00000   0.00189   0.00181  -0.40276
   D15       -0.40457   0.00312   0.00000   0.00299   0.00308  -0.40149
   D16        2.73703   0.00094   0.00000   0.00161   0.00152   2.73855
   D17        0.00000  -0.00054   0.00000  -0.00058  -0.00058  -0.00058
   D18        3.14159  -0.00025   0.00000  -0.00027  -0.00027   3.14132
   D19        3.14159  -0.00050   0.00000  -0.00053  -0.00053   3.14106
   D20        0.00000  -0.00021   0.00000  -0.00022  -0.00022  -0.00022
   D21        0.00000   0.00018   0.00000   0.00019   0.00019   0.00019
   D22       -3.14159   0.00025   0.00000   0.00026   0.00026  -3.14133
   D23        3.14159  -0.00011   0.00000  -0.00012  -0.00012   3.14148
   D24        0.00000  -0.00004   0.00000  -0.00005  -0.00005  -0.00004
   D25        0.00000   0.00021   0.00000   0.00023   0.00023   0.00023
   D26       -3.14159   0.00003   0.00000   0.00003   0.00003  -3.14156
   D27        3.14159   0.00015   0.00000   0.00016   0.00016  -3.14144
   D28        0.00000  -0.00004   0.00000  -0.00004  -0.00004  -0.00004
   D29       -2.81452  -0.00781   0.00000  -0.00928  -0.00860  -2.82312
   D30        0.32707  -0.00564   0.00000  -0.00790  -0.00705   0.32002
   D31        0.93532  -0.02060   0.00000  -0.02029  -0.02045   0.91487
   D32        3.02972   0.00353   0.00000   0.00262   0.00327   3.03298
   D33       -2.20627  -0.02277   0.00000  -0.02168  -0.02204  -2.22831
   D34       -0.11188   0.00135   0.00000   0.00124   0.00168  -0.11019
   D35        2.60478   0.02101   0.00000   0.01881   0.01830   2.62308
   D36        2.62095   0.00513   0.00000   0.00545   0.00478   2.62573
   D37        0.84877  -0.00742   0.00000  -0.00517  -0.00493   0.84384
   D38       -2.15714   0.01320   0.00000   0.01480   0.01362  -2.14351
   D39       -0.87936   0.00444   0.00000   0.00326   0.00356  -0.87580
   D40       -2.69096   0.00519   0.00000   0.01057   0.00969  -2.68127
   D41        0.45064  -0.00247   0.00000   0.00228   0.00147   0.45210
   D42       -0.59656   0.03472   0.00000   0.03746   0.03732  -0.55924
   D43        2.54503   0.02706   0.00000   0.02916   0.02910   2.57413
   D44       -1.51774   0.01026   0.00000   0.01421   0.01426  -1.50348
   D45        2.67105   0.02063   0.00000   0.02310   0.02303   2.69408
   D46        0.57666   0.02711   0.00000   0.03011   0.02888   0.60553
   D47        1.62385   0.00263   0.00000   0.00594   0.00607   1.62992
   D48       -0.47054   0.01300   0.00000   0.01483   0.01483  -0.45571
   D49       -2.56494   0.01948   0.00000   0.02184   0.02068  -2.54426
   D50        1.20324   0.00509   0.00000   0.00156   0.00179   1.20503
   D51        3.00336   0.00990   0.00000   0.00918   0.00863   3.01200
   D52       -1.18543  -0.01556   0.00000  -0.01495  -0.01475  -1.20017
   D53        0.90897  -0.01921   0.00000  -0.01831  -0.01913   0.88984
   D54       -2.98555   0.01120   0.00000   0.00573   0.00639  -2.97916
   D55       -1.18543   0.01601   0.00000   0.01334   0.01324  -1.17219
   D56        0.90897  -0.00945   0.00000  -0.01079  -0.01014   0.89883
   D57        3.00336  -0.01310   0.00000  -0.01415  -0.01453   2.98884
   D58       -0.89115   0.00635   0.00000   0.00065   0.00215  -0.88900
   D59        0.90897   0.01115   0.00000   0.00826   0.00900   0.91797
   D60        3.00336  -0.01430   0.00000  -0.01587  -0.01438   2.98898
   D61       -1.18543  -0.01795   0.00000  -0.01923  -0.01877  -1.20419
   D62       -2.47503  -0.00479   0.00000  -0.00482  -0.00460  -2.47962
   D63       -0.38063  -0.00417   0.00000  -0.00422  -0.00400  -0.38463
   D64        1.71376  -0.00497   0.00000  -0.00500  -0.00478   1.70899
   D65        1.71376   0.00831   0.00000   0.00704   0.00671   1.72048
   D66       -2.47503   0.00893   0.00000   0.00765   0.00732  -2.46771
   D67       -0.38063   0.00813   0.00000   0.00686   0.00654  -0.37410
   D68       -0.38063  -0.00811   0.00000  -0.00735  -0.00724  -0.38787
   D69        1.71376  -0.00749   0.00000  -0.00674  -0.00664   1.70713
   D70       -2.47503  -0.00829   0.00000  -0.00752  -0.00742  -2.48244
   D71        0.12284   0.00751   0.00000   0.00815   0.00841   0.13125
   D72        2.21723   0.01440   0.00000   0.01392   0.01464   2.23188
   D73       -1.97156   0.03666   0.00000   0.03425   0.03541  -1.93615
   D74        2.21723   0.00104   0.00000   0.00347   0.00331   2.22054
   D75       -1.97156   0.00792   0.00000   0.00924   0.00955  -1.96201
   D76        0.12284   0.03018   0.00000   0.02958   0.03031   0.15315
   D77       -1.97156  -0.00315   0.00000   0.00025   0.00003  -1.97152
   D78        0.12284   0.00373   0.00000   0.00601   0.00627   0.12911
   D79        2.21723   0.02599   0.00000   0.02635   0.02703   2.24427
         Item               Value     Threshold  Converged?
 Maximum Force            0.241462     0.000450     NO 
 RMS     Force            0.032936     0.000300     NO 
 Maximum Displacement     0.189417     0.001800     NO 
 RMS     Displacement     0.047801     0.001200     NO 
 Predicted change in Energy=-1.161931D-01
 GradGradGradGradGradGradGradGradGradGradGradGradGradGradGradGradGradGrad

                          Input orientation:                          
 ---------------------------------------------------------------------
 Center     Atomic      Atomic             Coordinates (Angstroms)
 Number     Number       Type             X           Y           Z
 ---------------------------------------------------------------------
      1          6           0       -4.535060    0.941648   -1.757687
      2          6           0       -3.770066   -0.220189   -1.906800
      3          6           0       -2.593048   -0.188604   -2.660827
      4          6           0       -2.180725    1.002346   -3.264423
      5          6           0       -2.945218    2.162480   -3.115193
      6          6           0       -4.122360    2.131563   -2.361845
      7          1           0       -5.435718    0.921013   -1.181547
      8          1           0       -1.279703    1.025522   -3.841049
      9          1           0       -2.629692    3.074447   -3.577563
     10          1           0       -4.707918    3.019744   -2.247458
     11          1           0       -2.008406   -1.077177   -2.775161
     12          6           0       -4.213770   -1.525842   -1.249018
     13          8           0       -3.742456   -2.745763   -1.786824
     14          1           0       -4.338855   -3.471265   -1.454516
     15          6           0       -5.045596   -1.523262   -0.164113
     16          1           0       -5.914122   -0.936219   -0.383721
     17          6           0       -5.488640   -2.937842    0.246348
     18          8           0       -6.570700   -3.105565    0.846672
     19          6           0       -4.605031   -4.153478   -0.090894
     20          6           0       -4.954029   -4.644905   -1.535815
     21          1           0       -4.256263   -5.404678   -1.824961
     22          1           0       -5.941624   -5.059227   -1.507910
     23          1           0       -4.943276   -3.878114   -2.276403
     24          6           0       -4.869768   -5.300165    0.908161
     25          1           0       -3.948842   -5.797969    1.136110
     26          1           0       -5.290867   -4.903318    1.809662
     27          1           0       -5.555278   -6.004017    0.479802
     28          6           0       -3.120664   -3.743487   -0.000198
     29          1           0       -3.033683   -2.755059    0.399610
     30          1           0       -2.585971   -4.424703    0.633105
     31          1           0       -2.736237   -3.753535   -0.997193
[...]
 Alpha virt. eigenvalues --    0.86635   0.86731   0.87408   0.88125   0.89062
 Alpha virt. eigenvalues --    0.89693   0.90585   0.91737   0.94541   0.95873
 Alpha virt. eigenvalues --    0.96352   1.01086   1.02688   1.06374   1.07105
 Alpha virt. eigenvalues --    1.08817   1.09982   1.12196   1.13143   1.13841
 Alpha virt. eigenvalues --    1.14534   1.16241   1.19133   1.21242   1.22605
 Alpha virt. eigenvalues --    1.24512   1.27198   1.28055   1.30997   1.31503
 Alpha virt. eigenvalues --    1.37906   1.43335   1.48329   1.50785   1.53793
 Alpha virt. eigenvalues --    1.93536   1.95348   2.45914   2.55475   2.57992
 Alpha virt. eigenvalues --    2.60242   2.60901   2.61749   2.63355   2.64179
 Alpha virt. eigenvalues --    2.65389   2.65849   2.67101   2.67308   2.69389
 Alpha virt. eigenvalues --    2.71388   2.76347   2.86354   2.91434   2.93677
 Alpha virt. eigenvalues --    2.95651   2.95993   3.01819   3.03434   3.05669
 Alpha virt. eigenvalues --    3.09060   3.13224   3.13993   3.17744   3.20139
 Alpha virt. eigenvalues --    3.24336   3.25363   3.26471   3.27368   3.29661
 Alpha virt. eigenvalues --    3.30758   3.32134   3.32725   3.34732   3.35348
 Alpha virt. eigenvalues --    3.36560   3.41812   3.44522   3.46426   3.51743
 Alpha virt. eigenvalues --    3.51961   3.53137   3.54270   3.57673   3.59301
 Alpha virt. eigenvalues --    3.60340   3.65424   3.67913   3.71553   3.73335
 Alpha virt. eigenvalues --    3.73916   3.87942   5.39682   5.44456   5.51652
 Alpha virt. eigenvalues --    5.52902   5.57635   5.73576  24.25131  24.40351
 Alpha virt. eigenvalues --   24.50087  24.51778  24.54549  24.64363  24.65184
 Alpha virt. eigenvalues --   24.70292  24.76392  24.78203  24.79975  24.86171
 Alpha virt. eigenvalues --   25.04873  51.56280  51.61089
          Condensed to atoms (all electrons):
              1          2          3          4          5          6
     1  C    5.030933   0.485542  -0.068974  -0.031703  -0.092995   0.466757
     2  C    0.485542   5.407673   0.467214  -0.058368  -0.012342  -0.069184
     3  C   -0.068974   0.467214   5.035632   0.457173  -0.083811  -0.032331
     4  C   -0.031703  -0.058368   0.457173   5.071343   0.490092  -0.074317
     5  C   -0.092995  -0.012342  -0.083811   0.490092   5.000065   0.495107
     6  C    0.466757  -0.069184  -0.032331  -0.074317   0.495107   5.063843
     7  H    0.392790  -0.041143   0.004442  -0.000167   0.004771  -0.032094
     8  H   -0.000196   0.006229  -0.039983   0.401193  -0.040626   0.006172
     9  H    0.007658  -0.001413   0.007241  -0.041923   0.400540  -0.042025
    10  H   -0.036571   0.006014  -0.000185   0.005858  -0.039759   0.398221
    11  H    0.005054  -0.040377   0.399923  -0.041494   0.004964  -0.000474
    12  C   -0.050542   0.191523  -0.053152   0.004828   0.001317   0.012110
    13  O    0.002234  -0.100092   0.007524  -0.000201   0.000039  -0.000192
    14  H   -0.000136   0.005758  -0.000435   0.000009  -0.000001   0.000016
    15  C    0.002846  -0.136162   0.005736  -0.000991   0.000139   0.000408
    16  H   -0.000881   0.002738   0.000784  -0.000034   0.000019  -0.000028
    17  C    0.000371   0.007425  -0.000357   0.000006   0.000000  -0.000049
    18  O   -0.000019  -0.000159   0.000001   0.000000   0.000000   0.000000
    19  C   -0.000048   0.000760   0.000013   0.000000   0.000000   0.000000
    20  C    0.000015  -0.000553   0.000010   0.000000   0.000000   0.000000
    21  H    0.000001  -0.000005   0.000000   0.000000   0.000000   0.000000
    22  H    0.000003   0.000014  -0.000001   0.000000   0.000000   0.000000
    23  H   -0.000038  -0.000023  -0.000025  -0.000001   0.000000  -0.000002
    24  C    0.000000   0.000006   0.000000   0.000000   0.000000   0.000000
    25  H    0.000000   0.000000   0.000000   0.000000   0.000000   0.000000
    26  H    0.000000   0.000000   0.000000   0.000000   0.000000   0.000000
    27  H    0.000000   0.000002   0.000000   0.000000   0.000000   0.000000
    28  C   -0.000002   0.000029  -0.000011   0.000000   0.000000   0.000000
    29  H    0.000000   0.000006   0.000000   0.000000   0.000000   0.000000
    30  H    0.000000   0.000009   0.000000   0.000000   0.000000   0.000000
    31  H    0.000006  -0.000138   0.000017   0.000000   0.000000   0.000000
              7          8          9         10         11         12
     1  C    0.392790  -0.000196   0.007658  -0.036571   0.005054  -0.050542
     2  C   -0.041143   0.006229  -0.001413   0.006014  -0.040377   0.191523
     3  C    0.004442  -0.039983   0.007241  -0.000185   0.399923  -0.053152
     4  C   -0.000167   0.401193  -0.041923   0.005858  -0.041494   0.004828
     5  C    0.004771  -0.040626   0.400540  -0.039759   0.004964   0.001317
     6  C   -0.032094   0.006172  -0.042025   0.398221  -0.000474   0.012110
     7  H    0.483511   0.000025  -0.000169  -0.003982  -0.000241  -0.003546
     8  H    0.000025   0.509955  -0.004509  -0.000219  -0.004059  -0.000539
     9  H   -0.000169  -0.004509   0.509814  -0.004380  -0.000142  -0.000018
    10  H   -0.003982  -0.000219  -0.004380   0.507775   0.000020  -0.000440
    11  H   -0.000241  -0.004059  -0.000142   0.000020   0.467035  -0.002770
    12  C   -0.003546  -0.000539  -0.000018  -0.000440  -0.002770   5.209472
    13  O    0.000265  -0.000070   0.000001   0.000002   0.008691   0.269062
    14  H   -0.000009  -0.000003   0.000000   0.000000  -0.000375  -0.028395
    15  C    0.001146  -0.000008   0.000000   0.000038   0.001435   0.045064
    16  H    0.002489   0.000002  -0.000001   0.000013  -0.000004  -0.049519
    17  C    0.000039   0.000000   0.000000   0.000001  -0.000035  -0.003170
    18  O   -0.000087   0.000000   0.000000   0.000000   0.000000   0.012198
    19  C   -0.000024   0.000000   0.000000   0.000000  -0.000002   0.023803
    20  C    0.000003   0.000000   0.000000   0.000000   0.000005  -0.008658
    21  H    0.000000   0.000000   0.000000   0.000000   0.000000   0.000630
    22  H    0.000008   0.000000   0.000000   0.000000   0.000000   0.000564
    23  H   -0.000015   0.000000   0.000000   0.000000  -0.000006  -0.007344
    24  C    0.000000   0.000000   0.000000   0.000000   0.000000  -0.001071
    25  H    0.000000   0.000000   0.000000   0.000000   0.000000   0.000065
    26  H    0.000000   0.000000   0.000000   0.000000   0.000000  -0.000125
    27  H    0.000000   0.000000   0.000000   0.000000   0.000000  -0.000091
    28  C    0.000004   0.000000   0.000000   0.000000   0.000003  -0.002279
    29  H    0.000000   0.000000   0.000000   0.000000  -0.000001  -0.000105
    30  H    0.000000   0.000000   0.000000   0.000000  -0.000001   0.000447
    31  H    0.000002   0.000000   0.000000   0.000000   0.000043  -0.001172
             13         14         15         16         17         18
     1  C    0.002234  -0.000136   0.002846  -0.000881   0.000371  -0.000019
     2  C   -0.100092   0.005758  -0.136162   0.002738   0.007425  -0.000159
     3  C    0.007524  -0.000435   0.005736   0.000784  -0.000357   0.000001
     4  C   -0.000201   0.000009  -0.000991  -0.000034   0.000006   0.000000
     5  C    0.000039  -0.000001   0.000139   0.000019   0.000000   0.000000
     6  C   -0.000192   0.000016   0.000408  -0.000028  -0.000049   0.000000
     7  H    0.000265  -0.000009   0.001146   0.002489   0.000039  -0.000087
     8  H   -0.000070  -0.000003  -0.000008   0.000002   0.000000   0.000000
     9  H    0.000001   0.000000   0.000000  -0.000001   0.000000   0.000000
    10  H    0.000002   0.000000   0.000038   0.000013   0.000001   0.000000
    11  H    0.008691  -0.000375   0.001435  -0.000004  -0.000035   0.000000
    12  C    0.269062  -0.028395   0.045064  -0.049519  -0.003170   0.012198
    13  O    8.445215   0.261261  -0.143218   0.002901  -0.002578  -0.000005
    14  H    0.261261   0.316572   0.005969  -0.000303  -0.000654  -0.000026
    15  C   -0.143218   0.005969   6.300049   0.386359   0.165842  -0.116061
    16  H    0.002901  -0.000303   0.386359   0.464602  -0.025912   0.007979
    17  C   -0.002578  -0.000654   0.165842  -0.025912   5.052301   0.571766
    18  O   -0.000005  -0.000026  -0.116061   0.007979   0.571766   8.139333
    19  C    0.002338   0.000315  -0.223868   0.008179  -0.042774  -0.139177
    20  C   -0.008036   0.001498   0.025766  -0.000324  -0.105265   0.003116
    21  H   -0.000070  -0.000089  -0.000531   0.000030   0.008906  -0.000286
    22  H    0.000049  -0.000233  -0.001039  -0.000106  -0.002874   0.000464
    23  H    0.012689   0.003414  -0.001850   0.000156  -0.003505   0.000071
    24  C    0.000044   0.000400   0.007622  -0.000083  -0.090153   0.010701
    25  H    0.000000  -0.000001  -0.000160   0.000003   0.015103   0.000351
    26  H    0.000003  -0.000010   0.000699   0.000007  -0.007212   0.004866
    27  H    0.000003  -0.000023   0.000094  -0.000006  -0.006362   0.003108
    28  C   -0.007144   0.002669   0.009843  -0.000403  -0.112813   0.002498
    29  H    0.000124  -0.000367   0.000103  -0.000029  -0.002356   0.001318
    30  H    0.000058  -0.000272  -0.000791   0.000030   0.008474  -0.000315
    31  H    0.004788   0.011747  -0.001533   0.000027  -0.004543   0.000143
             19         20         21         22         23         24
     1  C   -0.000048   0.000015   0.000001   0.000003  -0.000038   0.000000
     2  C    0.000760  -0.000553  -0.000005   0.000014  -0.000023   0.000006
     3  C    0.000013   0.000010   0.000000  -0.000001  -0.000025   0.000000
     4  C    0.000000   0.000000   0.000000   0.000000  -0.000001   0.000000
     5  C    0.000000   0.000000   0.000000   0.000000   0.000000   0.000000
     6  C    0.000000   0.000000   0.000000   0.000000  -0.000002   0.000000
     7  H   -0.000024   0.000003   0.000000   0.000008  -0.000015   0.000000
     8  H    0.000000   0.000000   0.000000   0.000000   0.000000   0.000000
     9  H    0.000000   0.000000   0.000000   0.000000   0.000000   0.000000
    10  H    0.000000   0.000000   0.000000   0.000000   0.000000   0.000000
    11  H   -0.000002   0.000005   0.000000   0.000000  -0.000006   0.000000
    12  C    0.023803  -0.008658   0.000630   0.000564  -0.007344  -0.001071
    13  O    0.002338  -0.008036  -0.000070   0.000049   0.012689   0.000044
    14  H    0.000315   0.001498  -0.000089  -0.000233   0.003414   0.000400
    15  C   -0.223868   0.025766  -0.000531  -0.001039  -0.001850   0.007622
    16  H    0.008179  -0.000324   0.000030  -0.000106   0.000156  -0.000083
    17  C   -0.042774  -0.105265   0.008906  -0.002874  -0.003505  -0.090153
    18  O   -0.139177   0.003116  -0.000286   0.000464   0.000071   0.010701
    19  C    6.514709   0.192948  -0.040383  -0.042450  -0.038198   0.213040
    20  C    0.192948   5.439246   0.383989   0.389548   0.374951  -0.116554
    21  H   -0.040383   0.383989   0.523767  -0.027764  -0.027084  -0.003398
    22  H   -0.042450   0.389548  -0.027764   0.510192  -0.023356  -0.004099
    23  H   -0.038198   0.374951  -0.027084  -0.023356   0.529645   0.006793
    24  C    0.213040  -0.116554  -0.003398  -0.004099   0.006793   5.328298
    25  H   -0.059433  -0.005955   0.002109  -0.000480  -0.000056   0.393004
    26  H   -0.035754   0.007831  -0.000116  -0.000102  -0.000247   0.388984
    27  H   -0.038760  -0.003453  -0.000341   0.003458   0.000038   0.390590
    28  C    0.206055  -0.091325  -0.005918   0.007951  -0.002292  -0.114146
    29  H   -0.041188   0.007773  -0.000113  -0.000256  -0.000150  -0.003892
    30  H   -0.040434  -0.005133   0.003702  -0.000094   0.000227  -0.003168
    31  H   -0.042603  -0.002518   0.000111  -0.000136  -0.001387   0.006857
             25         26         27         28         29         30
     1  C    0.000000   0.000000   0.000000  -0.000002   0.000000   0.000000
     2  C    0.000000   0.000000   0.000002   0.000029   0.000006   0.000009
     3  C    0.000000   0.000000   0.000000  -0.000011   0.000000   0.000000
     4  C    0.000000   0.000000   0.000000   0.000000   0.000000   0.000000
     5  C    0.000000   0.000000   0.000000   0.000000   0.000000   0.000000
     6  C    0.000000   0.000000   0.000000   0.000000   0.000000   0.000000
     7  H    0.000000   0.000000   0.000000   0.000004   0.000000   0.000000
     8  H    0.000000   0.000000   0.000000   0.000000   0.000000   0.000000
     9  H    0.000000   0.000000   0.000000   0.000000   0.000000   0.000000
    10  H    0.000000   0.000000   0.000000   0.000000   0.000000   0.000000
    11  H    0.000000   0.000000   0.000000   0.000003  -0.000001  -0.000001
    12  C    0.000065  -0.000125  -0.000091  -0.002279  -0.000105   0.000447
    13  O    0.000000   0.000003   0.000003  -0.007144   0.000124   0.000058
    14  H   -0.000001  -0.000010  -0.000023   0.002669  -0.000367  -0.000272
    15  C   -0.000160   0.000699   0.000094   0.009843   0.000103  -0.000791
    16  H    0.000003   0.000007  -0.000006  -0.000403  -0.000029   0.000030
    17  C    0.015103  -0.007212  -0.006362  -0.112813  -0.002356   0.008474
    18  O    0.000351   0.004866   0.003108   0.002498   0.001318  -0.000315
    19  C   -0.059433  -0.035754  -0.038760   0.206055  -0.041188  -0.040434
    20  C   -0.005955   0.007831  -0.003453  -0.091325   0.007773  -0.005133
    21  H    0.002109  -0.000116  -0.000341  -0.005918  -0.000113   0.003702
    22  H   -0.000480  -0.000102   0.003458   0.007951  -0.000256  -0.000094
    23  H   -0.000056  -0.000247   0.000038  -0.002292  -0.000150   0.000227
    24  C    0.393004   0.388984   0.390590  -0.114146  -0.003892  -0.003168
    25  H    0.559028  -0.029739  -0.029932  -0.005554  -0.000638   0.001885
    26  H   -0.029739   0.499885  -0.021508  -0.003709   0.003560  -0.000257
    27  H   -0.029932  -0.021508   0.511628   0.008174  -0.000092  -0.000153
    28  C   -0.005554  -0.003709   0.008174   5.437291   0.388562   0.386986
    29  H   -0.000638   0.003560  -0.000092   0.388562   0.496628  -0.025666
    30  H    0.001885  -0.000257  -0.000153   0.386986  -0.025666   0.512527
    31  H   -0.000138   0.000015  -0.000266   0.370500  -0.023369  -0.027421
             31
     1  C    0.000006
     2  C   -0.000138
     3  C    0.000017
     4  C    0.000000
     5  C    0.000000
     6  C    0.000000
     7  H    0.000002
     8  H    0.000000
     9  H    0.000000
    10  H    0.000000
    11  H    0.000043
    12  C   -0.001172
    13  O    0.004788
    14  H    0.011747
    15  C   -0.001533
    16  H    0.000027
    17  C   -0.004543
    18  O    0.000143
    19  C   -0.042603
    20  C   -0.002518
    21  H    0.000111
    22  H   -0.000136
    23  H   -0.001387
    24  C    0.006857
    25  H   -0.000138
    26  H    0.000015
    27  H   -0.000266
    28  C    0.370500
    29  H   -0.023369
    30  H   -0.027421
    31  H    0.561172
 Mulliken atomic charges:
              1
     1  C   -0.112105
     2  C   -0.120983
     3  C   -0.106445
     4  C   -0.181305
     5  C   -0.127520
     6  C   -0.191938
     7  H    0.191982
     8  H    0.166637
     9  H    0.169327
    10  H    0.167594
    11  H    0.202806
    12  C    0.441854
    13  O   -0.755686
    14  H    0.421704
    15  C   -0.332948
    16  H    0.201314
    17  C    0.580377
    18  O   -0.501777
    19  C   -0.377065
    20  C   -0.478926
    21  H    0.182852
    22  H    0.190741
    23  H    0.177593
    24  C   -0.409773
    25  H    0.160537
    26  H    0.192928
    27  H    0.183892
    28  C   -0.474969
    29  H    0.200148
    30  H    0.189359
    31  H    0.149795
 Sum of Mulliken atomic charges =   0.00000
 Mulliken charges with hydrogens summed into heavy atoms:
              1
     1  C    0.079877
     2  C   -0.120983
     3  C    0.096361
     4  C   -0.014669
     5  C    0.041807
     6  C   -0.024343
    12  C    0.441854
    13  O   -0.333981
    15  C   -0.131634
    17  C    0.580377
    18  O   -0.501777
    19  C   -0.377065
    20  C    0.072260
    24  C    0.127584
    28  C    0.064332
 Sum of Mulliken charges with hydrogens summed into heavy atoms =   0.00000
 Electronic spatial extent (au):  <R**2>=           4291.7661
 Charge=              0.0000 electrons
 Dipole moment (field-independent basis, Debye):
    X=             -0.7565    Y=             -2.8305    Z=              0.7669  Tot=              3.0285
 Quadrupole moment (field-independent basis, Debye-Ang):
   XX=            -81.1937   YY=            -95.3517   ZZ=            -95.4480
   XY=            -11.7422   XZ=              3.0711   YZ=              6.0745
 Traceless Quadrupole moment (field-independent basis, Debye-Ang):
   XX=              9.4707   YY=             -4.6872   ZZ=             -4.7835
   XY=            -11.7422   XZ=              3.0711   YZ=              6.0745
 Octapole moment (field-independent basis, Debye-Ang**2):
  XXX=            -35.8381  YYY=            -17.9601  ZZZ=             -1.0620  XYY=            -20.6463
  XXY=            -22.7270  XXZ=              3.9611  XZZ=             19.0892  YZZ=             -1.7790
  YYZ=              6.1346  XYZ=             -1.4127
 Hexadecapole moment (field-independent basis, Debye-Ang**3):
 XXXX=          -4490.6471 YYYY=           -769.4593 ZZZZ=           -328.7268 XXXY=            -50.0569
 XXXZ=             15.2283 YYYX=            -51.1690 YYYZ=             25.4536 ZZZX=             -7.1464
 ZZZY=             -2.8182 XXYY=           -921.1973 XXZZ=           -908.2959 YYZZ=           -186.5406
 XXYZ=             45.5033 YYXZ=             17.7160 ZZXY=              4.1401
 N-N= 9.579323949342D+02 E-N=-3.437376526926D+03  KE= 6.516013705586D+02
 1|1|UNPC-DESKTOP-K2VF0AK|FOpt|RHF|6-311G|C13H16O2|MELIH|22-Nov-2024|0|
 |# opt hf/6-311g geom=connectivity||Title Card Required||0,1|C,-4.7053
 446913,0.8493550064,-2.0554781541|C,-3.6755417372,-0.0863103487,-2.134
 7095441|C,-2.5077977872,0.2551401819,-2.8138864761|C,-2.3648781433,1.5
 128809677,-3.376808401|C,-3.3893476974,2.4418110794,-3.2816350757|C,-4
 .5620731676,2.1041537142,-2.6225985474|H,-5.6249083683,0.5960651237,-1
 .5728585618|H,-1.4587712677,1.7635207385,-3.8886522076|H,-3.2793682143
 ,3.4121329381,-3.7203571576|H,-5.3647893341,2.8090976088,-2.5572086793
 |H,-1.7213740959,-0.461311408,-2.8974498165|C,-3.8004324174,-1.4307361
 985,-1.5216566871|O,-3.0040804934,-2.3230685025,-2.185896919|H,-2.9361
 043659,-3.1850987005,-1.8127841057|C,-4.5749429394,-1.67537992,-0.4585
 52757|H,-5.0466015456,-0.8143026635,-0.0383668341|C,-4.9571104497,-2.8
 556564341,0.350431989|O,-5.6256846209,-2.6021350261,1.3472932758|C,-4.
 6229944079,-4.3236020977,0.0510349154|C,-5.0685523087,-4.7082553241,-1
 .3767602984|H,-4.8201123553,-5.7441342384,-1.5654069926|H,-6.141167593
 1,-4.6044352873,-1.4677683758|H,-4.6279037507,-4.1152175884,-2.1621516
 395|C,-5.3979515405,-5.2215491212,1.0323825859|H,-5.1575709124,-6.2587
 350022,0.8334528456|H,-5.1445423786,-4.9960691021,2.0553502429|H,-6.46
 35711817,-5.0889397451,0.9236926876|C,-3.1160170403,-4.5748797906,0.29
 50455501|H,-2.8860556975,-4.4360066492,1.3420640626|H,-2.8675723529,-5
 .5935355534,0.0297652023|H,-2.4504255141,-3.9204185571,-0.251176417||V
 ersion=IA32W-G09RevA.02|State=1-A|HF=-651.1786129|RMSD=5.942e-009|RMSF
 =4.028e-006|Dipole=0.7047597,-0.313319,-0.9082212|Quadrupole=-0.842860
 4,10.8946309,-10.0517705,-2.1409393,3.6628058,-3.2846567|PG=C01 [X(C13
 H16O2)]||@


 Time has a wonderful way of weeding out the trivial.
                                -- Richard Ben Sapir
 Job cpu time:  0 days  0 hours 54 minutes 15.0 seconds.
 File lengths (MBytes):  RWF=     42 Int=      0 D2E=      0 Chk=      5 Scr=      1
 Normal termination of Gaussian 09 at Fri Nov 22 16:05:59 2024.
