 Entering Link 1 = C:\G09W\l1.exe PID=      1680.
  
 Copyright (c) 1988,1990,1992,1993,1995,1998,2003,2009, Gaussian, Inc.
                  All Rights Reserved.
  
 This is part of the Gaussian(R) 09 program.  It is based on
 the Gaussian(R) 03 system (copyright 2003, Gaussian, Inc.),
 the Gaussian(R) 98 system (copyright 1998, Gaussian, Inc.),
 the Gaussian(R) 94 system (copyright 1995, Gaussian, Inc.),
 the Gaussian 92(TM) system (copyright 1992, Gaussian, Inc.),
 the Gaussian 90(TM) system (copyright 1990, Gaussian, Inc.),
 the Gaussian 88(TM) system (copyright 1988, Gaussian, Inc.),
 the Gaussian 86(TM) system (copyright 1986, Carnegie Mellon
 University), and the Gaussian 82(TM) system (copyright 1983,
 Carnegie Mellon University). Gaussian is a federally registered
 trademark of Gaussian, Inc.
  
 This software contains proprietary and confidential information,
 including trade secrets, belonging to Gaussian, Inc.
  
 This software is provided under written license and may be
 used, copied, transmitted, or stored only in accord with that
 written license.
  
 The following legend is applicable only to US Government
 contracts under FAR:
  
                    RESTRICTED RIGHTS LEGEND
  
 Use, reproduction and disclosure by the US Government is
 subject to restrictions as set forth in subparagraphs (a)
 and (c) of the Commercial Computer Software - Restricted
 Rights clause in FAR 52.227-19.
  
 Gaussian, Inc.
 340 Quinnipiac St., Bldg. 40, Wallingford CT 06492
  
  
 ---------------------------------------------------------------
 Warning -- This program may not be used in any manner that
 competes with the business of Gaussian, Inc. or will provide
 assistance to any competitor of Gaussian, Inc.  The licensee
 of this program is prohibited from giving any competitor of
 Gaussian, Inc. access to this program.  By using this program,
 the user acknowledges that Gaussian, Inc. is engaged in the
 business of creating and licensing software in the field of
 computational chemistry and represents and warrants to the
 licensee that it is not a competitor of Gaussian, Inc. and that
 it will not use this program in any manner prohibited above.
 ---------------------------------------------------------------
  

 Cite this work as:
 Gaussian 09, Revision A.02,
 M. J. Frisch, G. W. Trucks, H. B. Schlegel, G. E. Scuseria, 
 M. A. Robb, J. R. Cheeseman, G. Scalmani, V. Barone, B. Mennucci, 
 G. A. Petersson, H. Nakatsuji, M. Caricato, X. Li, H. P. Hratchian, 
 A. F. Izmaylov, J. Bloino, G. Zheng, J. L. Sonnenberg, M. Hada, 
 M. Ehara, K. Toyota, R. Fukuda, J. Hasegawa, M. Ishida, T. Nakajima, 
 Y. Honda, O. Kitao, H. Nakai, T. Vreven, J. A. Montgomery, Jr., 
 J. E. Peralta, F. Ogliaro, M. Bearpark, J. J. Heyd, E. Brothers, 
 K. N. Kudin, V. N. Staroverov, R. Kobayashi, J. Normand, 
 K. Raghavachari, A. Rendell, J. C. Burant, S. S. Iyengar, J. Tomasi, 
 M. Cossi, N. Rega, J. M. Millam, M. Klene, J. E. Knox, J. B. Cross, 
 V. Bakken, C. Adamo, J. Jaramillo, R. Gomperts, R. E. Stratmann, 
 O. Yazyev, A. J. Austin, R. Cammi, C. Pomelli, J. W. Ochterski, 
 R. L. Martin, K. Morokuma, V. G. Zakrzewski, G. A. Voth, 
 P. Salvador, J. J. Dannenberg, S. Dapprich, A. D. Daniels, 
 O. Farkas, J. B. Foresman, J. V. Ortiz, J. Cioslowski, 
 and D. J. Fox, Gaussian, Inc., Wallingford CT, 2009.
 
 ******************************************
 Gaussian 09:  IA32W-G09RevA.02 11-Jun-2009
                25-Nov-2024 
 ******************************************
 %chk=C:\G09W\Midterm1\E9energyt.chk
 ----------------------------
 # hf/3-21g geom=connectivity
 ----------------------------
 1/38=1,57=2/1;
 2/12=2,17=6,18=5,40=1/2;
 3/5=5,11=9,16=1,25=1,30=1/1,2,3;
 4//1;
 5/5=2,38=5/2;
 6/7=2,8=2,9=2,10=2,28=1/1;
 99/5=1,9=1/99;
 -------------------
 Title Card Required
 -------------------
 Symbolic Z-matrix:
 Charge =  0 Multiplicity = 1
 C                    -5.54144   1.60101  -3.75609 
 C                    -4.14629   1.59885  -3.75167 
 C                    -3.45258   1.59777  -2.54172 
 C                    -4.15405   1.60006  -1.33542 
 C                    -5.54886   1.6027   -1.33992 
 C                    -6.24264   1.60278  -2.55032 
 H                    -6.08818   1.60141  -4.71014 
 H                    -3.59377   1.59667  -4.70244 
 H                    -2.3529    1.59543  -2.53816 
 H                    -6.10199   1.60451  -0.38938 
 H                    -7.34223   1.60467  -2.55362 
 C                    -3.38777   1.59895   0.0004 
 O                    -4.01568   1.60101   1.09094 
 C                    -1.84777   1.59532   0.00164 
 H                    -1.31386   1.59357  -0.92564 
 C                    -1.16647   1.59433   1.17313 
 C                    -1.92696   1.59683   2.51226 
 C                    -2.81468   0.34155   2.6008 
 H                    -2.46011  -0.29129   3.38737 
 H                    -3.8241    0.63221   2.80449 
 H                    -2.77663  -0.18843   1.67205 
 C                    -0.91792   1.59507   3.67563 
 H                    -0.30678   2.47154   3.61902 
 H                    -1.4463    1.58817   4.60604 
 H                    -0.29959   0.72428   3.61014 
 C                    -2.80877   2.85636   2.59947 
 H                    -2.77981   3.3774    1.66535 
 H                    -3.81678   2.5716    2.81793 
 H                    -2.4424    3.49519   3.37571 
 O                     0.2635    1.59095   1.16579 
 H                     0.58373   2.39499   0.75035 
 
                          Input orientation:                          
 ---------------------------------------------------------------------
 Center     Atomic      Atomic             Coordinates (Angstroms)
 Number     Number       Type             X           Y           Z
 ---------------------------------------------------------------------
      1          6           0       -5.541438    1.601011   -3.756086
      2          6           0       -4.146287    1.598846   -3.751671
      3          6           0       -3.452575    1.597770   -2.541718
      4          6           0       -4.154048    1.600058   -1.335423
      5          6           0       -5.548863    1.602702   -1.339916
      6          6           0       -6.242637    1.602781   -2.550323
      7          1           0       -6.088180    1.601408   -4.710138
      8          1           0       -3.593770    1.596673   -4.702440
      9          1           0       -2.352903    1.595430   -2.538158
     10          1           0       -6.101994    1.604514   -0.389380
     11          1           0       -7.342235    1.604668   -2.553620
     12          6           0       -3.387768    1.598953    0.000396
     13          8           0       -4.015685    1.601007    1.090941
     14          6           0       -1.847773    1.595321    0.001638
     15          1           0       -1.313864    1.593575   -0.925636
     16          6           0       -1.166474    1.594330    1.173133
     17          6           0       -1.926961    1.596827    2.512257
     18          6           0       -2.814682    0.341553    2.600798
     19          1           0       -2.460105   -0.291287    3.387366
     20          1           0       -3.824101    0.632207    2.804493
     21          1           0       -2.776631   -0.188433    1.672053
     22          6           0       -0.917922    1.595070    3.675629
     23          1           0       -0.306783    2.471543    3.619021
     24          1           0       -1.446305    1.588168    4.606039
     25          1           0       -0.299591    0.724278    3.610144
     26          6           0       -2.808768    2.856355    2.599466
     27          1           0       -2.779807    3.377398    1.665349
     28          1           0       -3.816780    2.571600    2.817931
     29          1           0       -2.442400    3.495194    3.375713
     30          8           0        0.263503    1.590953    1.165790
     31          1           0        0.583728    2.394986    0.750354
 ---------------------------------------------------------------------
                    Distance matrix (angstroms):
                    1          2          3          4          5
     1  C    0.000000
     2  C    1.395160   0.000000
     3  C    2.416205   1.394712   0.000000
     4  C    2.790065   2.416260   1.395427   0.000000
     5  C    2.416183   2.789946   2.416356   1.394825   0.000000
     6  C    1.394829   2.416183   2.790080   2.416236   1.395138
     7  H    1.099610   2.165553   3.412986   3.889675   3.413102
     8  H    2.165414   1.099655   2.165330   3.413316   3.889601
     9  H    3.413229   2.165375   1.099680   2.165806   3.413209
    10  H    3.413055   3.889707   3.413506   2.165528   1.099761
    11  H    2.165365   3.413128   3.889684   3.412999   2.165471
    12  C    4.330065   3.827971   2.542941   1.540000   2.542987
    13  O    5.081495   4.844373   3.676046   2.430306   2.873969
    14  C    5.269126   4.401194   3.007334   2.665832   3.936736
    15  H    5.087621   4.001140   2.680639   2.869601   4.255224
    16  C    6.590717   5.756126   4.361925   3.901087   5.051813
    17  C    7.235785   6.645464   5.279220   4.445735   5.287479
    18  C    7.030747   6.611189   5.332022   4.344142   4.959382
    19  H    8.006517   7.575068   6.301395   5.362030   5.956073
    20  H    6.850476   6.634869   5.445395   4.264330   4.592688
    21  H    6.349091   5.872572   4.626369   3.760438   4.468265
    22  C    8.752561   8.098589   6.714156   5.965164   6.826519
    23  H    9.085793   8.356463   6.972388   6.333044   7.268104
    24  H    9.311038   8.783014   7.423992   6.529394   7.223958
    25  H    9.083335   8.352141   6.967762   6.331071   7.268396
    26  C    7.031104   6.611144   5.332008   4.344124   4.959687
    27  H    6.338305   5.862987   4.617262   3.748614   4.455202
    28  H    6.865435   6.649398   5.459563   4.278784   4.607230
    29  H    8.003407   7.569608   6.295766   5.358739   5.955568
    30  O    7.610670   6.605129   5.249276   5.076505   6.329478
    31  H    7.645656   6.578382   5.269254   5.237260   6.527297
                    6          7          8          9         10
     6  C    0.000000
     7  H    2.165331   0.000000
     8  H    3.412938   2.494427   0.000000
     9  H    3.889760   4.320860   2.494768   0.000000
    10  H    2.165516   4.320781   4.989362   4.321228   0.000000
    11  H    1.099604   2.494641   4.320704   4.989364   2.494420
    12  C    3.828376   5.429675   4.707347   2.741390   2.742076
    13  O    4.268269   6.160175   5.808725   3.991896   2.558133
    14  C    5.082067   6.338922   5.017655   2.589541   4.272163
    15  H    5.189654   6.092341   4.411602   1.918289   4.818078
    16  C    6.295365   7.670470   6.357210   3.896318   5.176959
    17  C    6.652429   8.335391   7.404735   5.068345   5.084334
    18  C    6.314715   8.108811   7.451147   5.309832   4.619811
    19  H    7.290487   9.072750   8.384184   6.219568   5.578640
    20  H    5.955283   7.907913   7.572139   5.624602   4.041658
    21  H    5.748923   7.409606   6.669968   4.592122   4.303743
    22  C    8.192383   9.851533   8.795010   6.377329   6.587791
    23  H    8.605226  10.176275   8.989793   6.547139   7.099541
    24  H    8.615019  10.408571   9.552982   7.201495   6.828611
    25  H    8.604820  10.173703   8.983971   6.540383   7.102034
    26  C    6.315318   8.109239   7.451232   5.309702   4.620135
    27  H    5.736928   7.399075   6.662000   4.585535   4.289750
    28  H    5.970055   7.922901   7.586580   5.637689   4.055158
    29  H    7.289783   9.069682   8.377744   6.212165   5.580612
    30  O    7.492629   8.652775   7.022443   4.534846   6.552731
    31  H    7.623734   8.658008   6.915327   4.480782   6.828083
                   11         12         13         14         15
    11  H    0.000000
    12  C    4.707530   0.000000
    13  O    4.934447   1.258400   0.000000
    14  C    6.059583   1.540000   2.426202   0.000000
    15  H    6.244335   2.271265   3.371420   1.070000   0.000000
    16  C    7.213100   2.511867   2.850404   1.355200   2.103938
    17  C    7.415413   2.905753   2.526445   2.511867   3.492135
    18  C    6.975831   2.944753   2.303975   3.043432   4.031842
    19  H    7.919921   3.988123   3.357704   3.923951   4.844436
    20  H    6.483234   2.997990   1.977761   3.562227   4.597759
    21  H    6.474277   2.522434   2.252785   2.614353   3.473216
    22  C    8.948488   4.428035   4.034450   3.789832   4.618269
    23  H    9.399497   4.832010   4.572196   4.028383   4.736976
    24  H    9.274858   4.998134   4.354055   4.621876   5.533263
    25  H    9.400315   4.830339   4.574319   4.022051   4.728396
    26  C    6.976629   2.944735   2.303953   3.043424   4.031836
    27  H    6.462044   2.510886   2.238951   2.610061   3.470478
    28  H    6.497489   3.011411   1.991008   3.572340   4.608190
    29  H    7.920825   3.985250   3.359071   3.917586   4.836461
    30  O    8.466489   3.832751   4.279854   2.410965   2.619571
    31  H    8.623325   4.119331   4.679851   2.666877   2.655571
                   16         17         18         19         20
    16  C    0.000000
    17  C    1.540000   0.000000
    18  C    2.514809   1.540000   0.000000
    19  H    3.183058   2.148263   1.070000   0.000000
    20  H    3.263433   2.148263   1.070000   1.747303   0.000000
    21  H    2.453522   2.148263   1.070000   1.747303   1.747303
    22  C    2.514810   1.540000   2.514809   2.453522   3.183059
    23  H    2.736958   2.148263   3.444298   3.510511   4.051930
    24  H    3.444299   2.148263   2.729010   2.458720   3.132626
    25  H    2.729011   2.148263   2.736958   2.397671   3.616590
    26  C    2.514809   1.540000   2.514810   3.263434   2.453522
    27  H    2.454476   2.148263   3.176891   4.065317   3.150281
    28  H    3.268721   2.148263   2.454477   3.218842   1.939453
    29  H    3.176891   2.148263   3.268722   3.786541   3.229874
    30  O    1.430000   2.571214   3.618766   3.987012   4.507000
    31  H    1.970533   3.169372   4.380630   4.840952   5.172604
                   21         22         23         24         25
    21  H    0.000000
    22  C    3.263434   0.000000
    23  H    4.119017   1.070000   0.000000
    24  H    3.678907   1.070000   1.747303   0.000000
    25  H    3.274900   1.070000   1.747303   1.747303   0.000000
    26  C    3.183059   2.514809   2.729010   2.736958   3.444299
    27  H    3.565839   3.268721   3.279215   3.691509   4.119800
    28  H    3.164290   3.176891   3.601642   3.127878   4.051027
    29  H    4.072258   2.454477   2.380739   2.478439   3.510636
    30  O    3.558782   2.774000   2.668147   3.841714   2.653878
    31  H    4.337695   3.384088   3.004683   4.431512   3.427815
                   26         27         28         29         30
    26  C    0.000000
    27  H    1.070000   0.000000
    28  H    1.070000   1.747303   0.000000
    29  H    1.070000   1.747303   1.747303   0.000000
    30  O    3.618773   3.564082   4.509983   3.978921   0.000000
    31  H    3.891157   3.621563   4.865237   4.154566   0.960000
                   31
    31  H    0.000000
 Stoichiometry    C13H16O2
 Framework group  C1[X(C13H16O2)]
 Deg. of freedom    87
 Full point group                 C1      NOp   1
 Largest Abelian subgroup         C1      NOp   1
 Largest concise Abelian subgroup C1      NOp   1
                         Standard orientation:                         
 ---------------------------------------------------------------------
 Center     Atomic      Atomic             Coordinates (Angstroms)
 Number     Number       Type             X           Y           Z
 ---------------------------------------------------------------------
      1          6           0       -4.590601    0.161230    0.001032
      2          6           0       -3.802025    1.311961   -0.019830
      3          6           0       -2.411445    1.204690   -0.021676
      4          6           0       -1.808832   -0.053747   -0.001455
      5          6           0       -2.597282   -1.204150    0.019880
      6          6           0       -3.988275   -1.096691    0.020727
      7          1           0       -5.686938    0.246014    0.002033
      8          1           0       -4.277194    2.303521   -0.036132
      9          1           0       -1.789816    2.111654   -0.038753
     10          1           0       -2.122653   -2.196091    0.035827
     11          1           0       -4.609646   -2.003747    0.037351
     12          6           0       -0.273368   -0.171842   -0.003417
     13          8           0        0.274934   -1.304363    0.014765
     14          6           0        0.594074    1.100382   -0.027712
     15          1           0        0.127860    2.063349   -0.043172
     16          6           0        1.945875    1.004487   -0.029578
     17          6           0        2.625099   -0.377455   -0.007419
     18          6           0        2.196700   -1.179982   -1.250007
     19          1           0        3.045374   -1.338922   -1.881981
     20          1           0        1.797685   -2.124593   -0.944397
     21          1           0        1.449388   -0.634030   -1.786999
     22          6           0        4.154576   -0.197878   -0.014508
     23          1           0        4.453115    0.352351    0.853262
     24          1           0        4.626477   -1.158171   -0.007748
     25          1           0        4.446825    0.336959   -0.893962
     26          6           0        2.203243   -1.136447    1.264418
     27          1           0        1.448178   -0.579149    1.778417
     28          1           0        1.816242   -2.096875    0.994769
     29          1           0        3.052200   -1.260671    1.903745
     30          8           0        2.744323    2.190603   -0.052202
     31          1           0        2.582417    2.701133    0.744507
 ---------------------------------------------------------------------
 Rotational constants (GHZ):      1.5030774      0.3122154      0.2741199
 Standard basis: 3-21G (6D, 7F)
 There are   167 symmetry adapted basis functions of A   symmetry.
 Integral buffers will be    262144 words long.
 Raffenetti 1 integral format.
 Two-electron integral symmetry is turned on.
   167 basis functions,   273 primitive gaussians,   167 cartesian basis functions
    55 alpha electrons       55 beta electrons
       nuclear repulsion energy       975.1031083234 Hartrees.
 NAtoms=   31 NActive=   31 NUniq=   31 SFac= 7.50D-01 NAtFMM=   80 NAOKFM=F Big=F
 One-electron integrals computed using PRISM.
 NBasis=   167 RedAO= T  NBF=   167
 NBsUse=   167 1.00D-06 NBFU=   167
 Harris functional with IExCor=  205 diagonalized for initial guess.
 ExpMin= 1.83D-01 ExpMax= 3.22D+02 ExpMxC= 3.22D+02 IAcc=1 IRadAn=         1 AccDes= 0.00D+00
 HarFok:  IExCor=  205 AccDes= 0.00D+00 IRadAn=         1 IDoV= 1
 ScaDFX=  1.000000  1.000000  1.000000  1.000000
 FoFCou: FMM=F IPFlag=           0 FMFlag=      100000 FMFlg1=           0
         NFxFlg=           0 DoJE=T BraDBF=F KetDBF=T FulRan=T
         Omega=  0.000000  0.000000  1.000000  0.000000  0.000000 ICntrl=     500 IOpCl=  0
         NMat0=    1 NMatS0=    1 NMatT0=    0 NMatD0=    1 NMtDS0=    0 NMtDT0=    0
         I1Cent=           4 NGrid=           0.
 Petite list used in FoFCou.
 Initial guess orbital symmetries:
       Occupied  (A) (A) (A) (A) (A) (A) (A) (A) (A) (A) (A) (A)
                 (A) (A) (A) (A) (A) (A) (A) (A) (A) (A) (A) (A)
                 (A) (A) (A) (A) (A) (A) (A) (A) (A) (A) (A) (A)
                 (A) (A) (A) (A) (A) (A) (A) (A) (A) (A) (A) (A)
                 (A) (A) (A) (A) (A) (A) (A)
       Virtual   (A) (A) (A) (A) (A) (A) (A) (A) (A) (A) (A) (A)
                 (A) (A) (A) (A) (A) (A) (A) (A) (A) (A) (A) (A)
                 (A) (A) (A) (A) (A) (A) (A) (A) (A) (A) (A) (A)
                 (A) (A) (A) (A) (A) (A) (A) (A) (A) (A) (A) (A)
                 (A) (A) (A) (A) (A) (A) (A) (A) (A) (A) (A) (A)
                 (A) (A) (A) (A) (A) (A) (A) (A) (A) (A) (A) (A)
                 (A) (A) (A) (A) (A) (A) (A) (A) (A) (A) (A) (A)
                 (A) (A) (A) (A) (A) (A) (A) (A) (A) (A) (A) (A)
                 (A) (A) (A) (A) (A) (A) (A) (A) (A) (A) (A) (A)
                 (A) (A) (A) (A)
 The electronic state of the initial guess is 1-A.
 Requested convergence on RMS density matrix=1.00D-08 within 128 cycles.
 Requested convergence on MAX density matrix=1.00D-06.
 Requested convergence on             energy=1.00D-06.
 No special actions if energy rises.
 Integral accuracy reduced to 1.0D-05 until final iterations.
 Initial convergence to 1.0D-05 achieved.  Increase integral accuracy.
 SCF Done:  E(RHF) =  -647.621447844     A.U. after   15 cycles
             Convg  =    0.7151D-08             -V/T =  2.0024

 **********************************************************************

            Population analysis using the SCF density.

 **********************************************************************

 Orbital symmetries:
       Occupied  (A) (A) (A) (A) (A) (A) (A) (A) (A) (A) (A) (A)
                 (A) (A) (A) (A) (A) (A) (A) (A) (A) (A) (A) (A)
                 (A) (A) (A) (A) (A) (A) (A) (A) (A) (A) (A) (A)
                 (A) (A) (A) (A) (A) (A) (A) (A) (A) (A) (A) (A)
                 (A) (A) (A) (A) (A) (A) (A)
       Virtual   (A) (A) (A) (A) (A) (A) (A) (A) (A) (A) (A) (A)
                 (A) (A) (A) (A) (A) (A) (A) (A) (A) (A) (A) (A)
                 (A) (A) (A) (A) (A) (A) (A) (A) (A) (A) (A) (A)
                 (A) (A) (A) (A) (A) (A) (A) (A) (A) (A) (A) (A)
                 (A) (A) (A) (A) (A) (A) (A) (A) (A) (A) (A) (A)
                 (A) (A) (A) (A) (A) (A) (A) (A) (A) (A) (A) (A)
                 (A) (A) (A) (A) (A) (A) (A) (A) (A) (A) (A) (A)
                 (A) (A) (A) (A) (A) (A) (A) (A) (A) (A) (A) (A)
                 (A) (A) (A) (A) (A) (A) (A) (A) (A) (A) (A) (A)
                 (A) (A) (A) (A)
 The electronic state is 1-A.
 Alpha  occ. eigenvalues --  -20.48759 -20.44812 -11.29948 -11.27624 -11.20677
 Alpha  occ. eigenvalues --  -11.20370 -11.20093 -11.19859 -11.19660 -11.19490
 Alpha  occ. eigenvalues --  -11.18188 -11.17945 -11.13747 -11.12805 -11.12381
 Alpha  occ. eigenvalues --   -1.38846  -1.38175  -1.17047  -1.11335  -1.05344
 Alpha  occ. eigenvalues --   -1.02793  -1.02272  -0.93143  -0.92582  -0.88289
 Alpha  occ. eigenvalues --   -0.84471  -0.82564  -0.78065  -0.73798  -0.70701
 Alpha  occ. eigenvalues --   -0.68032  -0.66939  -0.64354  -0.62982  -0.62332
 Alpha  occ. eigenvalues --   -0.60512  -0.60309  -0.59690  -0.59150  -0.55860
 Alpha  occ. eigenvalues --   -0.54935  -0.53799  -0.53034  -0.51984  -0.51647
 Alpha  occ. eigenvalues --   -0.50929  -0.49890  -0.46660  -0.45218  -0.44646
 Alpha  occ. eigenvalues --   -0.44033  -0.40378  -0.35874  -0.35019  -0.34884
 Alpha virt. eigenvalues --    0.07018   0.13277   0.15140   0.23913   0.24117
 Alpha virt. eigenvalues --    0.26301   0.27651   0.30276   0.31676   0.31994
 Alpha virt. eigenvalues --    0.33141   0.34044   0.35774   0.35910   0.36039
 Alpha virt. eigenvalues --    0.36795   0.37532   0.37957   0.39272   0.40993
 Alpha virt. eigenvalues --    0.41400   0.41886   0.44005   0.45402   0.46588
 Alpha virt. eigenvalues --    0.48543   0.49671   0.52978   0.53038   0.53795
 Alpha virt. eigenvalues --    0.57001   0.62206   0.67226   0.71491   0.78135
 Alpha virt. eigenvalues --    0.81941   0.89483   0.92151   0.92309   0.93329
 Alpha virt. eigenvalues --    0.93672   0.95676   0.98009   1.00079   1.00425
 Alpha virt. eigenvalues --    1.01104   1.02153   1.03290   1.03408   1.05931
 Alpha virt. eigenvalues --    1.06521   1.06677   1.07184   1.07293   1.10402
 Alpha virt. eigenvalues --    1.10778   1.11199   1.11300   1.14913   1.17126
 Alpha virt. eigenvalues --    1.19403   1.23347   1.25228   1.26008   1.28167
 Alpha virt. eigenvalues --    1.28419   1.29352   1.30582   1.31207   1.33794
 Alpha virt. eigenvalues --    1.35875   1.37586   1.38436   1.39344   1.41819
 Alpha virt. eigenvalues --    1.43484   1.43621   1.44199   1.44946   1.49097
 Alpha virt. eigenvalues --    1.50430   1.50917   1.51603   1.54786   1.56641
 Alpha virt. eigenvalues --    1.58817   1.61698   1.64374   1.70361   1.71066
 Alpha virt. eigenvalues --    1.74695   1.78221   1.78707   1.80334   1.82833
 Alpha virt. eigenvalues --    1.88152   1.94663   2.00741   2.01536   2.07846
 Alpha virt. eigenvalues --    2.10562   2.12530   2.16121   2.19481   2.21928
 Alpha virt. eigenvalues --    2.35194   2.35838   2.50758   2.73723   2.96651
 Alpha virt. eigenvalues --    3.49470   3.82913
          Condensed to atoms (all electrons):
              1          2          3          4          5          6
     1  C    5.168513   0.471123  -0.107357  -0.001745  -0.104078   0.461728
     2  C    0.471123   5.166045   0.473211  -0.106361  -0.002948  -0.109428
     3  C   -0.107357   0.473211   5.197203   0.416916  -0.085812  -0.002895
     4  C   -0.001745  -0.106361   0.416916   5.627806   0.417708  -0.108141
     5  C   -0.104078  -0.002948  -0.085812   0.417708   5.203776   0.443185
     6  C    0.461728  -0.109428  -0.002895  -0.108141   0.443185   5.207692
     7  H    0.393420  -0.030698   0.002325  -0.000162   0.002281  -0.030440
     8  H   -0.030314   0.395299  -0.032070   0.002275  -0.000099   0.002085
     9  H    0.001913  -0.025187   0.390028  -0.032693   0.001685  -0.000036
    10  H    0.001795  -0.000006   0.001500  -0.034194   0.388064  -0.024617
    11  H   -0.031090   0.002094  -0.000081   0.002440  -0.031642   0.395450
    12  C   -0.000132   0.001422  -0.031371   0.195367  -0.052732   0.003419
    13  O   -0.000003  -0.000005   0.001945  -0.088416   0.005214   0.000283
    14  C   -0.000017   0.000141  -0.001743  -0.118901   0.004116   0.000028
    15  H    0.000003   0.000022   0.000274  -0.001572  -0.000056  -0.000003
    16  C    0.000000  -0.000001  -0.000011   0.002972  -0.000025   0.000000
    17  C    0.000000   0.000000   0.000002  -0.000164   0.000001   0.000000
    18  C    0.000000   0.000000  -0.000006   0.000173  -0.000006   0.000000
    19  H    0.000000   0.000000   0.000000   0.000010   0.000000   0.000000
    20  H    0.000000   0.000000   0.000001  -0.000143   0.000008   0.000000
    21  H    0.000000   0.000000   0.000008  -0.000459   0.000013   0.000000
    22  C    0.000000   0.000000   0.000000   0.000003   0.000000   0.000000
    23  H    0.000000   0.000000   0.000000   0.000000   0.000000   0.000000
    24  H    0.000000   0.000000   0.000000   0.000000   0.000000   0.000000
    25  H    0.000000   0.000000   0.000000   0.000000   0.000000   0.000000
    26  C    0.000000   0.000000  -0.000006   0.000202  -0.000006   0.000000
    27  H    0.000000   0.000000   0.000009  -0.000505   0.000013   0.000000
    28  H    0.000000   0.000000   0.000001  -0.000132   0.000007   0.000000
    29  H    0.000000   0.000000   0.000000   0.000010   0.000000   0.000000
    30  O    0.000000   0.000000   0.000001  -0.000009   0.000000   0.000000
    31  H    0.000000   0.000000  -0.000001   0.000002   0.000000   0.000000
              7          8          9         10         11         12
     1  C    0.393420  -0.030314   0.001913   0.001795  -0.031090  -0.000132
     2  C   -0.030698   0.395299  -0.025187  -0.000006   0.002094   0.001422
     3  C    0.002325  -0.032070   0.390028   0.001500  -0.000081  -0.031371
     4  C   -0.000162   0.002275  -0.032693  -0.034194   0.002440   0.195367
     5  C    0.002281  -0.000099   0.001685   0.388064  -0.031642  -0.052732
     6  C   -0.030440   0.002085  -0.000036  -0.024617   0.395450   0.003419
     7  H    0.418245  -0.001229  -0.000029  -0.000028  -0.001194   0.000000
     8  H   -0.001229   0.420650  -0.000966   0.000001  -0.000031  -0.000033
     9  H   -0.000029  -0.000966   0.409636  -0.000036   0.000001  -0.001437
    10  H   -0.000028   0.000001  -0.000036   0.382771  -0.001051   0.000133
    11  H   -0.001194  -0.000031   0.000001  -0.001051   0.418567  -0.000030
    12  C    0.000000  -0.000033  -0.001437   0.000133  -0.000030   4.668057
    13  O    0.000000   0.000000   0.000016   0.006102   0.000001   0.513448
    14  C    0.000000   0.000004  -0.000974   0.000243   0.000000   0.225948
    15  H    0.000000  -0.000006   0.005507  -0.000002   0.000000  -0.015060
    16  C    0.000000   0.000000  -0.000028  -0.000004   0.000000  -0.060865
    17  C    0.000000   0.000000  -0.000002   0.000000   0.000000  -0.002323
    18  C    0.000000   0.000000   0.000000  -0.000004   0.000000  -0.011005
    19  H    0.000000   0.000000   0.000000   0.000000   0.000000   0.000421
    20  H    0.000000   0.000000   0.000000   0.000012   0.000000  -0.001521
    21  H    0.000000   0.000000  -0.000001   0.000004   0.000000  -0.001071
    22  C    0.000000   0.000000   0.000000   0.000000   0.000000   0.000143
    23  H    0.000000   0.000000   0.000000   0.000000   0.000000  -0.000012
    24  H    0.000000   0.000000   0.000000   0.000000   0.000000   0.000000
    25  H    0.000000   0.000000   0.000000   0.000000   0.000000  -0.000010
    26  C    0.000000   0.000000   0.000000  -0.000004   0.000000  -0.010972
    27  H    0.000000   0.000000  -0.000001   0.000005   0.000000  -0.001208
    28  H    0.000000   0.000000   0.000000   0.000012   0.000000  -0.001378
    29  H    0.000000   0.000000   0.000000   0.000000   0.000000   0.000425
    30  O    0.000000   0.000000  -0.000005   0.000000   0.000000   0.001475
    31  H    0.000000   0.000000   0.000000   0.000000   0.000000   0.000008
             13         14         15         16         17         18
     1  C   -0.000003  -0.000017   0.000003   0.000000   0.000000   0.000000
     2  C   -0.000005   0.000141   0.000022  -0.000001   0.000000   0.000000
     3  C    0.001945  -0.001743   0.000274  -0.000011   0.000002  -0.000006
     4  C   -0.088416  -0.118901  -0.001572   0.002972  -0.000164   0.000173
     5  C    0.005214   0.004116  -0.000056  -0.000025   0.000001  -0.000006
     6  C    0.000283   0.000028  -0.000003   0.000000   0.000000   0.000000
     7  H    0.000000   0.000000   0.000000   0.000000   0.000000   0.000000
     8  H    0.000000   0.000004  -0.000006   0.000000   0.000000   0.000000
     9  H    0.000016  -0.000974   0.005507  -0.000028  -0.000002   0.000000
    10  H    0.006102   0.000243  -0.000002  -0.000004   0.000000  -0.000004
    11  H    0.000001   0.000000   0.000000   0.000000   0.000000   0.000000
    12  C    0.513448   0.225948  -0.015060  -0.060865  -0.002323  -0.011005
    13  O    8.344383  -0.095207   0.000901   0.003997  -0.008125  -0.024740
    14  C   -0.095207   5.746759   0.387587   0.419986  -0.114810  -0.001149
    15  H    0.000901   0.387587   0.424434  -0.045234   0.002425  -0.000043
    16  C    0.003997   0.419986  -0.045234   4.972437   0.217647  -0.079367
    17  C   -0.008125  -0.114810   0.002425   0.217647   6.031115   0.217343
    18  C   -0.024740  -0.001149  -0.000043  -0.079367   0.217343   5.385737
    19  H    0.001871  -0.000278   0.000000   0.002755  -0.054357   0.374106
    20  H   -0.007201   0.000871  -0.000001   0.003013  -0.044307   0.393910
    21  H   -0.006723   0.000068  -0.000013  -0.005225  -0.051756   0.392168
    22  C    0.000462   0.003696  -0.000040  -0.081982   0.243772  -0.066550
    23  H   -0.000001   0.000075   0.000000  -0.001388  -0.050937   0.004031
    24  H   -0.000001  -0.000034   0.000000   0.004914  -0.047671  -0.001831
    25  H   -0.000001   0.000052   0.000001  -0.002251  -0.047335  -0.001057
    26  C   -0.023118  -0.003078  -0.000047  -0.077176   0.214383  -0.071416
    27  H   -0.007110   0.000661   0.000006  -0.004496  -0.052331   0.003952
    28  H   -0.007328   0.000888   0.000000   0.002749  -0.042954  -0.007383
    29  H    0.001894  -0.000271   0.000000   0.002698  -0.054433   0.003163
    30  O    0.000000  -0.060563  -0.000979   0.290120  -0.050867   0.000924
    31  H    0.000002  -0.002497   0.000902  -0.044676   0.004066  -0.000077
             19         20         21         22         23         24
     1  C    0.000000   0.000000   0.000000   0.000000   0.000000   0.000000
     2  C    0.000000   0.000000   0.000000   0.000000   0.000000   0.000000
     3  C    0.000000   0.000001   0.000008   0.000000   0.000000   0.000000
     4  C    0.000010  -0.000143  -0.000459   0.000003   0.000000   0.000000
     5  C    0.000000   0.000008   0.000013   0.000000   0.000000   0.000000
     6  C    0.000000   0.000000   0.000000   0.000000   0.000000   0.000000
     7  H    0.000000   0.000000   0.000000   0.000000   0.000000   0.000000
     8  H    0.000000   0.000000   0.000000   0.000000   0.000000   0.000000
     9  H    0.000000   0.000000  -0.000001   0.000000   0.000000   0.000000
    10  H    0.000000   0.000012   0.000004   0.000000   0.000000   0.000000
    11  H    0.000000   0.000000   0.000000   0.000000   0.000000   0.000000
    12  C    0.000421  -0.001521  -0.001071   0.000143  -0.000012   0.000000
    13  O    0.001871  -0.007201  -0.006723   0.000462  -0.000001  -0.000001
    14  C   -0.000278   0.000871   0.000068   0.003696   0.000075  -0.000034
    15  H    0.000000  -0.000001  -0.000013  -0.000040   0.000000   0.000000
    16  C    0.002755   0.003013  -0.005225  -0.081982  -0.001388   0.004914
    17  C   -0.054357  -0.044307  -0.051756   0.243772  -0.050937  -0.047671
    18  C    0.374106   0.393910   0.392168  -0.066550   0.004031  -0.001831
    19  H    0.553562  -0.028939  -0.027926  -0.005723   0.000317   0.000072
    20  H   -0.028939   0.470440  -0.020431   0.002086  -0.000095   0.000131
    21  H   -0.027926  -0.020431   0.509407   0.003041  -0.000099   0.000025
    22  C   -0.005723   0.002086   0.003041   5.329518   0.382442   0.382535
    23  H    0.000317  -0.000095  -0.000099   0.382442   0.521430  -0.026086
    24  H    0.000072   0.000131   0.000025   0.382535  -0.026086   0.514099
    25  H    0.000736   0.000015   0.000022   0.383895  -0.023987  -0.025211
    26  C    0.003152  -0.007533   0.003958  -0.068685  -0.001087  -0.001776
    27  H   -0.000128   0.000466  -0.000054   0.003214   0.000019   0.000025
    28  H    0.000164   0.000367   0.000423   0.002152   0.000011   0.000124
    29  H    0.000008   0.000160  -0.000125  -0.005900   0.000831   0.000099
    30  O   -0.000020  -0.000007   0.000012   0.005827   0.002183   0.000185
    31  H    0.000001   0.000001   0.000001  -0.000353  -0.000048  -0.000005
             25         26         27         28         29         30
     1  C    0.000000   0.000000   0.000000   0.000000   0.000000   0.000000
     2  C    0.000000   0.000000   0.000000   0.000000   0.000000   0.000000
     3  C    0.000000  -0.000006   0.000009   0.000001   0.000000   0.000001
     4  C    0.000000   0.000202  -0.000505  -0.000132   0.000010  -0.000009
     5  C    0.000000  -0.000006   0.000013   0.000007   0.000000   0.000000
     6  C    0.000000   0.000000   0.000000   0.000000   0.000000   0.000000
     7  H    0.000000   0.000000   0.000000   0.000000   0.000000   0.000000
     8  H    0.000000   0.000000   0.000000   0.000000   0.000000   0.000000
     9  H    0.000000   0.000000  -0.000001   0.000000   0.000000  -0.000005
    10  H    0.000000  -0.000004   0.000005   0.000012   0.000000   0.000000
    11  H    0.000000   0.000000   0.000000   0.000000   0.000000   0.000000
    12  C   -0.000010  -0.010972  -0.001208  -0.001378   0.000425   0.001475
    13  O   -0.000001  -0.023118  -0.007110  -0.007328   0.001894   0.000000
    14  C    0.000052  -0.003078   0.000661   0.000888  -0.000271  -0.060563
    15  H    0.000001  -0.000047   0.000006   0.000000   0.000000  -0.000979
    16  C   -0.002251  -0.077176  -0.004496   0.002749   0.002698   0.290120
    17  C   -0.047335   0.214383  -0.052331  -0.042954  -0.054433  -0.050867
    18  C   -0.001057  -0.071416   0.003952  -0.007383   0.003163   0.000924
    19  H    0.000736   0.003152  -0.000128   0.000164   0.000008  -0.000020
    20  H    0.000015  -0.007533   0.000466   0.000367   0.000160  -0.000007
    21  H    0.000022   0.003958  -0.000054   0.000423  -0.000125   0.000012
    22  C    0.383895  -0.068685   0.003214   0.002152  -0.005900   0.005827
    23  H   -0.023987  -0.001087   0.000019   0.000011   0.000831   0.002183
    24  H   -0.025211  -0.001776   0.000025   0.000124   0.000099   0.000185
    25  H    0.495402   0.003842  -0.000097  -0.000088   0.000305   0.001247
    26  C    0.003842   5.395632   0.390027   0.393616   0.372601   0.001096
    27  H   -0.000097   0.390027   0.520120  -0.019834  -0.028885  -0.000038
    28  H   -0.000088   0.393616  -0.019834   0.464394  -0.028604  -0.000009
    29  H    0.000305   0.372601  -0.028885  -0.028604   0.557719  -0.000020
    30  O    0.001247   0.001096  -0.000038  -0.000009  -0.000020   8.229042
    31  H   -0.000101  -0.000227  -0.000035   0.000001   0.000018   0.272079
             31
     1  C    0.000000
     2  C    0.000000
     3  C   -0.000001
     4  C    0.000002
     5  C    0.000000
     6  C    0.000000
     7  H    0.000000
     8  H    0.000000
     9  H    0.000000
    10  H    0.000000
    11  H    0.000000
    12  C    0.000008
    13  O    0.000002
    14  C   -0.002497
    15  H    0.000902
    16  C   -0.044676
    17  C    0.004066
    18  C   -0.000077
    19  H    0.000001
    20  H    0.000001
    21  H    0.000001
    22  C   -0.000353
    23  H   -0.000048
    24  H   -0.000005
    25  H   -0.000101
    26  C   -0.000227
    27  H   -0.000035
    28  H    0.000001
    29  H    0.000018
    30  O    0.272079
    31  H    0.369218
 Mulliken atomic charges:
              1
     1  C   -0.223759
     2  C   -0.234723
     3  C   -0.222074
     4  C   -0.172291
     5  C   -0.188668
     6  C   -0.238312
     7  H    0.247508
     8  H    0.244431
     9  H    0.252608
    10  H    0.279302
    11  H    0.246567
    12  C    0.580893
    13  O   -0.612538
    14  C   -0.391602
    15  H    0.240993
    16  C    0.479441
    17  C   -0.308385
    18  C   -0.510873
    19  H    0.180196
    20  H    0.238698
    21  H    0.204733
    22  C   -0.513554
    23  H    0.192402
    24  H    0.200406
    25  H    0.214621
    26  C   -0.513378
    27  H    0.196205
    28  H    0.242803
    29  H    0.178306
    30  O   -0.691674
    31  H    0.401717
 Sum of Mulliken atomic charges =   0.00000
 Mulliken charges with hydrogens summed into heavy atoms:
              1
     1  C    0.023750
     2  C    0.009708
     3  C    0.030534
     4  C   -0.172291
     5  C    0.090634
     6  C    0.008255
    12  C    0.580893
    13  O   -0.612538
    14  C   -0.150609
    16  C    0.479441
    17  C   -0.308385
    18  C    0.112753
    22  C    0.093875
    26  C    0.103936
    30  O   -0.289957
 Sum of Mulliken charges with hydrogens summed into heavy atoms =   0.00000
 Electronic spatial extent (au):  <R**2>=           4012.6355
 Charge=              0.0000 electrons
 Dipole moment (field-independent basis, Debye):
    X=             -2.3725    Y=              2.0007    Z=              1.5349  Tot=              3.4623
 Quadrupole moment (field-independent basis, Debye-Ang):
   XX=            -83.7142   YY=            -84.9717   ZZ=            -96.2707
   XY=             -0.1142   XZ=              4.0909   YZ=              4.5915
 Traceless Quadrupole moment (field-independent basis, Debye-Ang):
   XX=              4.6047   YY=              3.3471   ZZ=             -7.9518
   XY=             -0.1142   XZ=              4.0909   YZ=              4.5915
 Octapole moment (field-independent basis, Debye-Ang**2):
  XXX=            -62.5852  YYY=             19.4551  ZZZ=              1.2760  XYY=             -9.9740
  XXY=             -7.3244  XXZ=             10.5146  XZZ=             22.8832  YZZ=              4.5632
  YYZ=             13.3333  XYZ=             13.0515
 Hexadecapole moment (field-independent basis, Debye-Ang**3):
 XXXX=          -4080.1206 YYYY=           -730.1175 ZZZZ=           -281.1127 XXXY=             -4.5089
 XXXZ=             25.5115 YYYX=             44.8164 YYYZ=             35.9887 ZZZX=              2.9109
 ZZZY=              4.9540 XXYY=           -810.4543 XXZZ=           -836.0972 YYZZ=           -185.1060
 XXYZ=             30.8657 YYXZ=             35.0649 ZZXY=             23.2446
 N-N= 9.751031083234D+02 E-N=-3.462710842925D+03  KE= 6.460391999621D+02
 1|1|UNPC-DESKTOP-K2VF0AK|SP|RHF|3-21G|C13H16O2|MELIH|25-Nov-2024|0||# 
 hf/3-21g geom=connectivity||Title Card Required||0,1|C,0,-5.54143797,1
 .60101059,-3.75608616|C,0,-4.14628663,1.59884566,-3.75167087|C,0,-3.45
 257515,1.59776997,-2.54171841|C,0,-4.15404754,1.60005828,-1.33542334|C
 ,0,-5.54886288,1.60270169,-1.33991556|C,0,-6.24263747,1.60278147,-2.55
 032322|H,0,-6.08818044,1.60140838,-4.71013822|H,0,-3.59376966,1.596672
 67,-4.70244006|H,0,-2.35290322,1.59542955,-2.53815823|H,0,-6.10199368,
 1.60451363,-0.38938031|H,0,-7.34223494,1.60466778,-2.55362016|C,0,-3.3
 8776791,1.59895269,0.00039638|O,0,-4.01568495,1.60100668,1.09094052|C,
 0,-1.84777269,1.595321,0.00163836|H,0,-1.31386358,1.59357452,-0.925636
 14|C,0,-1.16647431,1.59432953,1.17313252|C,0,-1.92696142,1.59682681,2.
 51225653|C,0,-2.8146816,0.3415526,2.60079773|H,0,-2.46010506,-0.291287
 01,3.38736591|H,0,-3.8241012,0.63220737,2.80449329|H,0,-2.77663087,-0.
 18843323,1.67205279|C,0,-0.91792153,1.59506987,3.67562897|H,0,-0.30678
 339,2.47154329,3.61902055|H,0,-1.44630477,1.58816756,4.60603936|H,0,-0
 .29959056,0.72427798,3.61014384|C,0,-2.80876785,2.85635524,2.59946638|
 H,0,-2.77980739,3.37739783,1.66534866|H,0,-3.81677956,2.5716,2.8179311
 5|H,0,-2.44240001,3.49519441,3.37571319|O,0,0.26350285,1.59095283,1.16
 578957|H,0,0.58372791,2.39498586,0.7503539||Version=IA32W-G09RevA.02|S
 tate=1-A|HF=-647.6214478|RMSD=7.151e-009|Dipole=0.1174041,0.6140687,-1
 .2102088|Quadrupole=2.5822866,-5.796762,3.2144753,4.6444935,0.428552,0
 .5353922|PG=C01 [X(C13H16O2)]||@


 WORK FAITHFULLY FOR EIGHT HOURS A DAY AND DON'T WORRY.
 IN TIME YOU MAY BECOME BOSS AND WORK TWELVE HOURS A DAY
 AND HAVE ALL THE WORRY.
 Job cpu time:  0 days  0 hours  0 minutes 30.0 seconds.
 File lengths (MBytes):  RWF=     20 Int=      0 D2E=      0 Chk=      2 Scr=      1
 Normal termination of Gaussian 09 at Mon Nov 25 19:42:11 2024.
