 Entering Link 1 = C:\G09W\l1.exe PID=     21864.
  
 Copyright (c) 1988,1990,1992,1993,1995,1998,2003,2009, Gaussian, Inc.
                  All Rights Reserved.
  
 This is part of the Gaussian(R) 09 program.  It is based on
 the Gaussian(R) 03 system (copyright 2003, Gaussian, Inc.),
 the Gaussian(R) 98 system (copyright 1998, Gaussian, Inc.),
 the Gaussian(R) 94 system (copyright 1995, Gaussian, Inc.),
 the Gaussian 92(TM) system (copyright 1992, Gaussian, Inc.),
 the Gaussian 90(TM) system (copyright 1990, Gaussian, Inc.),
 the Gaussian 88(TM) system (copyright 1988, Gaussian, Inc.),
 the Gaussian 86(TM) system (copyright 1986, Carnegie Mellon
 University), and the Gaussian 82(TM) system (copyright 1983,
 Carnegie Mellon University). Gaussian is a federally registered
 trademark of Gaussian, Inc.
  
 This software contains proprietary and confidential information,
 including trade secrets, belonging to Gaussian, Inc.
  
 This software is provided under written license and may be
 used, copied, transmitted, or stored only in accord with that
 written license.
  
 The following legend is applicable only to US Government
 contracts under FAR:
  
                    RESTRICTED RIGHTS LEGEND
  
 Use, reproduction and disclosure by the US Government is
 subject to restrictions as set forth in subparagraphs (a)
 and (c) of the Commercial Computer Software - Restricted
 Rights clause in FAR 52.227-19.
  
 Gaussian, Inc.
 340 Quinnipiac St., Bldg. 40, Wallingford CT 06492
  
  
 ---------------------------------------------------------------
 Warning -- This program may not be used in any manner that
 competes with the business of Gaussian, Inc. or will provide
 assistance to any competitor of Gaussian, Inc.  The licensee
 of this program is prohibited from giving any competitor of
 Gaussian, Inc. access to this program.  By using this program,
 the user acknowledges that Gaussian, Inc. is engaged in the
 business of creating and licensing software in the field of
 computational chemistry and represents and warrants to the
 licensee that it is not a competitor of Gaussian, Inc. and that
 it will not use this program in any manner prohibited above.
 ---------------------------------------------------------------
  

 Cite this work as:
 Gaussian 09, Revision A.02,
 M. J. Frisch, G. W. Trucks, H. B. Schlegel, G. E. Scuseria, 
 M. A. Robb, J. R. Cheeseman, G. Scalmani, V. Barone, B. Mennucci, 
 G. A. Petersson, H. Nakatsuji, M. Caricato, X. Li, H. P. Hratchian, 
 A. F. Izmaylov, J. Bloino, G. Zheng, J. L. Sonnenberg, M. Hada, 
 M. Ehara, K. Toyota, R. Fukuda, J. Hasegawa, M. Ishida, T. Nakajima, 
 Y. Honda, O. Kitao, H. Nakai, T. Vreven, J. A. Montgomery, Jr., 
 J. E. Peralta, F. Ogliaro, M. Bearpark, J. J. Heyd, E. Brothers, 
 K. N. Kudin, V. N. Staroverov, R. Kobayashi, J. Normand, 
 K. Raghavachari, A. Rendell, J. C. Burant, S. S. Iyengar, J. Tomasi, 
 M. Cossi, N. Rega, J. M. Millam, M. Klene, J. E. Knox, J. B. Cross, 
 V. Bakken, C. Adamo, J. Jaramillo, R. Gomperts, R. E. Stratmann, 
 O. Yazyev, A. J. Austin, R. Cammi, C. Pomelli, J. W. Ochterski, 
 R. L. Martin, K. Morokuma, V. G. Zakrzewski, G. A. Voth, 
 P. Salvador, J. J. Dannenberg, S. Dapprich, A. D. Daniels, 
 O. Farkas, J. B. Foresman, J. V. Ortiz, J. Cioslowski, 
 and D. J. Fox, Gaussian, Inc., Wallingford CT, 2009.
 
 ******************************************
 Gaussian 09:  IA32W-G09RevA.02 11-Jun-2009
                22-Nov-2024 
 ******************************************
 %chk=C:\G09W\Midterm1\E9opt.chk
 --------------------------------
 # opt hf/3-21g geom=connectivity
 --------------------------------
 1/18=20,19=15,38=1,57=2/1,3;
 2/9=110,12=2,17=6,18=5,40=1/2;
 3/5=5,11=9,16=1,25=1,30=1,71=1/1,2,3;
 4//1;
 5/5=2,38=5/2;
 6/7=2,8=2,9=2,10=2,28=1/1;
 7//1,2,3,16;
 1/18=20,19=15/3(2);
 2/9=110/2;
 99//99;
 2/9=110/2;
 3/5=5,11=9,16=1,25=1,30=1,71=1/1,2,3;
 4/5=5,16=3/1;
 5/5=2,38=5/2;
 7//1,2,3,16;
 1/18=20,19=15/3(-5);
 2/9=110/2;
 6/7=2,8=2,9=2,10=2,19=2,28=1/1;
 99/9=1/99;
 -------------------
 Title Card Required
 -------------------
 Symbolic Z-matrix:
 Charge =  0 Multiplicity = 1
 C                    -5.54144   1.60101  -3.75609 
 C                    -4.14629   1.59885  -3.75167 
 C                    -3.45258   1.59777  -2.54172 
 C                    -4.15405   1.60006  -1.33542 
 C                    -5.54886   1.6027   -1.33992 
 C                    -6.24264   1.60278  -2.55032 
 H                    -6.08818   1.60141  -4.71014 
 H                    -3.59377   1.59667  -4.70244 
 H                    -2.3529    1.59543  -2.53816 
 H                    -6.10199   1.60451  -0.38938 
 H                    -7.34223   1.60467  -2.55362 
 C                    -3.38777   1.59895   0.0004 
 O                    -4.01568   1.60101   1.09094 
 C                    -1.84777   1.59532   0.00164 
 H                    -1.31386   1.59357  -0.92564 
 C                    -1.16647   1.59433   1.17313 
 C                    -1.92696   1.59683   2.51226 
 C                    -2.81468   0.34155   2.6008 
 H                    -2.46011  -0.29129   3.38737 
 H                    -3.8241    0.63221   2.80449 
 H                    -2.77663  -0.18843   1.67205 
 C                    -0.91792   1.59507   3.67563 
 H                    -0.30678   2.47154   3.61902 
 H                    -1.4463    1.58817   4.60604 
 H                    -0.29959   0.72428   3.61014 
 C                    -2.80877   2.85636   2.59947 
 H                    -2.77981   3.3774    1.66535 
 H                    -3.81678   2.5716    2.81793 
 H                    -2.4424    3.49519   3.37571 
 O                     0.2635    1.59095   1.16579 
 H                     0.58373   2.39499   0.75035 
 

 GradGradGradGradGradGradGradGradGradGradGradGradGradGradGradGradGradGrad
 Berny optimization.
 Initialization pass.
                           ----------------------------
                           !    Initial Parameters    !
                           ! (Angstroms and Degrees)  !
 --------------------------                            --------------------------
 ! Name  Definition              Value          Derivative Info.                !
 --------------------------------------------------------------------------------
 ! R1    R(1,2)                  1.3952         estimate D2E/DX2                !
 ! R2    R(1,6)                  1.3948         estimate D2E/DX2                !
 ! R3    R(1,7)                  1.0996         estimate D2E/DX2                !
 ! R4    R(2,3)                  1.3947         estimate D2E/DX2                !
 ! R5    R(2,8)                  1.0997         estimate D2E/DX2                !
 ! R6    R(3,4)                  1.3954         estimate D2E/DX2                !
 ! R7    R(3,9)                  1.0997         estimate D2E/DX2                !
 ! R8    R(4,5)                  1.3948         estimate D2E/DX2                !
 ! R9    R(4,12)                 1.54           estimate D2E/DX2                !
 ! R10   R(5,6)                  1.3951         estimate D2E/DX2                !
 ! R11   R(5,10)                 1.0998         estimate D2E/DX2                !
 ! R12   R(6,11)                 1.0996         estimate D2E/DX2                !
 ! R13   R(12,13)                1.2584         estimate D2E/DX2                !
 ! R14   R(12,14)                1.54           estimate D2E/DX2                !
 ! R15   R(14,15)                1.07           estimate D2E/DX2                !
 ! R16   R(14,16)                1.3552         estimate D2E/DX2                !
 ! R17   R(16,17)                1.54           estimate D2E/DX2                !
 ! R18   R(16,30)                1.43           estimate D2E/DX2                !
 ! R19   R(17,18)                1.54           estimate D2E/DX2                !
 ! R20   R(17,22)                1.54           estimate D2E/DX2                !
 ! R21   R(17,26)                1.54           estimate D2E/DX2                !
 ! R22   R(18,19)                1.07           estimate D2E/DX2                !
 ! R23   R(18,20)                1.07           estimate D2E/DX2                !
 ! R24   R(18,21)                1.07           estimate D2E/DX2                !
 ! R25   R(22,23)                1.07           estimate D2E/DX2                !
 ! R26   R(22,24)                1.07           estimate D2E/DX2                !
 ! R27   R(22,25)                1.07           estimate D2E/DX2                !
 ! R28   R(26,27)                1.07           estimate D2E/DX2                !
 ! R29   R(26,28)                1.07           estimate D2E/DX2                !
 ! R30   R(26,29)                1.07           estimate D2E/DX2                !
 ! R31   R(30,31)                0.96           estimate D2E/DX2                !
 ! A1    A(2,1,6)              119.9985         estimate D2E/DX2                !
 ! A2    A(2,1,7)              119.9972         estimate D2E/DX2                !
 ! A3    A(6,1,7)              120.0043         estimate D2E/DX2                !
 ! A4    A(1,2,3)              120.0086         estimate D2E/DX2                !
 ! A5    A(1,2,8)              119.9808         estimate D2E/DX2                !
 ! A6    A(3,2,8)              120.0106         estimate D2E/DX2                !
 ! A7    A(2,3,4)              119.9942         estimate D2E/DX2                !
 ! A8    A(2,3,9)              120.0128         estimate D2E/DX2                !
 ! A9    A(4,3,9)              119.993          estimate D2E/DX2                !
 ! A10   A(3,4,5)              119.994          estimate D2E/DX2                !
 ! A11   A(3,4,12)             119.9811         estimate D2E/DX2                !
 ! A12   A(5,4,12)             120.0249         estimate D2E/DX2                !
 ! A13   A(4,5,6)              120.0047         estimate D2E/DX2                !
 ! A14   A(4,5,10)             120.0113         estimate D2E/DX2                !
 ! A15   A(6,5,10)             119.984          estimate D2E/DX2                !
 ! A16   A(1,6,5)              120.0            estimate D2E/DX2                !
 ! A17   A(1,6,11)             120.008          estimate D2E/DX2                !
 ! A18   A(5,6,11)             119.992          estimate D2E/DX2                !
 ! A19   A(4,12,13)            120.2269         estimate D2E/DX2                !
 ! A20   A(4,12,14)            119.8865         estimate D2E/DX2                !
 ! A21   A(13,12,14)           119.8865         estimate D2E/DX2                !
 ! A22   A(12,14,15)           119.8865         estimate D2E/DX2                !
 ! A23   A(12,14,16)           120.2269         estimate D2E/DX2                !
 ! A24   A(15,14,16)           119.8865         estimate D2E/DX2                !
 ! A25   A(14,16,17)           120.2269         estimate D2E/DX2                !
 ! A26   A(14,16,30)           119.8865         estimate D2E/DX2                !
 ! A27   A(17,16,30)           119.8865         estimate D2E/DX2                !
 ! A28   A(16,17,18)           109.4712         estimate D2E/DX2                !
 ! A29   A(16,17,22)           109.4712         estimate D2E/DX2                !
 ! A30   A(16,17,26)           109.4712         estimate D2E/DX2                !
 ! A31   A(18,17,22)           109.4712         estimate D2E/DX2                !
 ! A32   A(18,17,26)           109.4713         estimate D2E/DX2                !
 ! A33   A(22,17,26)           109.4712         estimate D2E/DX2                !
 ! A34   A(17,18,19)           109.4712         estimate D2E/DX2                !
 ! A35   A(17,18,20)           109.4712         estimate D2E/DX2                !
 ! A36   A(17,18,21)           109.4712         estimate D2E/DX2                !
 ! A37   A(19,18,20)           109.4713         estimate D2E/DX2                !
 ! A38   A(19,18,21)           109.4712         estimate D2E/DX2                !
 ! A39   A(20,18,21)           109.4712         estimate D2E/DX2                !
 ! A40   A(17,22,23)           109.4712         estimate D2E/DX2                !
 ! A41   A(17,22,24)           109.4712         estimate D2E/DX2                !
 ! A42   A(17,22,25)           109.4712         estimate D2E/DX2                !
 ! A43   A(23,22,24)           109.4713         estimate D2E/DX2                !
 ! A44   A(23,22,25)           109.4712         estimate D2E/DX2                !
 ! A45   A(24,22,25)           109.4712         estimate D2E/DX2                !
 ! A46   A(17,26,27)           109.4712         estimate D2E/DX2                !
 ! A47   A(17,26,28)           109.4712         estimate D2E/DX2                !
 ! A48   A(17,26,29)           109.4712         estimate D2E/DX2                !
 ! A49   A(27,26,28)           109.4713         estimate D2E/DX2                !
 ! A50   A(27,26,29)           109.4712         estimate D2E/DX2                !
 ! A51   A(28,26,29)           109.4712         estimate D2E/DX2                !
 ! A52   A(16,30,31)           109.5            estimate D2E/DX2                !
 ! D1    D(6,1,2,3)              0.0323         estimate D2E/DX2                !
 ! D2    D(6,1,2,8)            179.9532         estimate D2E/DX2                !
 ! D3    D(7,1,2,3)           -179.9729         estimate D2E/DX2                !
 ! D4    D(7,1,2,8)             -0.052          estimate D2E/DX2                !
 ! D5    D(2,1,6,5)              0.0149         estimate D2E/DX2                !
 ! D6    D(2,1,6,11)           179.9892         estimate D2E/DX2                !
 ! D7    D(7,1,6,5)           -179.9798         estimate D2E/DX2                !
 ! D8    D(7,1,6,11)            -0.0056         estimate D2E/DX2                !
 ! D9    D(1,2,3,4)             -0.0568         estimate D2E/DX2                !
 ! D10   D(1,2,3,9)            179.9619         estimate D2E/DX2                !
 ! D11   D(8,2,3,4)           -179.9777         estimate D2E/DX2                !
 ! D12   D(8,2,3,9)              0.041          estimate D2E/DX2                !
 ! D13   D(2,3,4,5)              0.0341         estimate D2E/DX2                !
 ! D14   D(2,3,4,12)          -179.9964         estimate D2E/DX2                !
 ! D15   D(9,3,4,5)           -179.9846         estimate D2E/DX2                !
 ! D16   D(9,3,4,12)            -0.0151         estimate D2E/DX2                !
 ! D17   D(3,4,5,6)              0.0131         estimate D2E/DX2                !
 ! D18   D(3,4,5,10)          -179.9995         estimate D2E/DX2                !
 ! D19   D(12,4,5,6)          -179.9563         estimate D2E/DX2                !
 ! D20   D(12,4,5,10)            0.0311         estimate D2E/DX2                !
 ! D21   D(3,4,12,13)         -180.0            estimate D2E/DX2                !
 ! D22   D(3,4,12,14)            0.0            estimate D2E/DX2                !
 ! D23   D(5,4,12,13)           -0.0306         estimate D2E/DX2                !
 ! D24   D(5,4,12,14)          179.9694         estimate D2E/DX2                !
 ! D25   D(4,5,6,1)             -0.0376         estimate D2E/DX2                !
 ! D26   D(4,5,6,11)           179.9881         estimate D2E/DX2                !
 ! D27   D(10,5,6,1)           179.975          estimate D2E/DX2                !
 ! D28   D(10,5,6,11)            0.0007         estimate D2E/DX2                !
 ! D29   D(4,12,14,15)           0.0            estimate D2E/DX2                !
 ! D30   D(4,12,14,16)         180.0            estimate D2E/DX2                !
 ! D31   D(13,12,14,15)        180.0            estimate D2E/DX2                !
 ! D32   D(13,12,14,16)          0.0            estimate D2E/DX2                !
 ! D33   D(12,14,16,17)          0.0            estimate D2E/DX2                !
 ! D34   D(12,14,16,30)        180.0            estimate D2E/DX2                !
 ! D35   D(15,14,16,17)        180.0            estimate D2E/DX2                !
 ! D36   D(15,14,16,30)          0.0            estimate D2E/DX2                !
 ! D37   D(14,16,17,18)         60.0005         estimate D2E/DX2                !
 ! D38   D(14,16,17,22)       -179.9995         estimate D2E/DX2                !
 ! D39   D(14,16,17,26)        -59.9995         estimate D2E/DX2                !
 ! D40   D(30,16,17,18)       -119.9995         estimate D2E/DX2                !
 ! D41   D(30,16,17,22)          0.0005         estimate D2E/DX2                !
 ! D42   D(30,16,17,26)        120.0005         estimate D2E/DX2                !
 ! D43   D(14,16,30,31)         62.8193         estimate D2E/DX2                !
 ! D44   D(17,16,30,31)       -117.1807         estimate D2E/DX2                !
 ! D45   D(16,17,18,19)        114.1388         estimate D2E/DX2                !
 ! D46   D(16,17,18,20)       -125.8611         estimate D2E/DX2                !
 ! D47   D(16,17,18,21)         -5.8612         estimate D2E/DX2                !
 ! D48   D(22,17,18,19)         -5.8612         estimate D2E/DX2                !
 ! D49   D(22,17,18,20)        114.1389         estimate D2E/DX2                !
 ! D50   D(22,17,18,21)       -125.8612         estimate D2E/DX2                !
 ! D51   D(26,17,18,19)       -125.8612         estimate D2E/DX2                !
 ! D52   D(26,17,18,20)         -5.8612         estimate D2E/DX2                !
 ! D53   D(26,17,18,21)        114.1388         estimate D2E/DX2                !
 ! D54   D(16,17,22,23)         60.4906         estimate D2E/DX2                !
 ! D55   D(16,17,22,24)       -179.5094         estimate D2E/DX2                !
 ! D56   D(16,17,22,25)        -59.5094         estimate D2E/DX2                !
 ! D57   D(18,17,22,23)       -179.5095         estimate D2E/DX2                !
 ! D58   D(18,17,22,24)        -59.5094         estimate D2E/DX2                !
 ! D59   D(18,17,22,25)         60.4905         estimate D2E/DX2                !
 ! D60   D(26,17,22,23)        -59.5094         estimate D2E/DX2                !
 ! D61   D(26,17,22,24)         60.4906         estimate D2E/DX2                !
 ! D62   D(26,17,22,25)       -179.5094         estimate D2E/DX2                !
 ! D63   D(16,17,26,27)          6.6992         estimate D2E/DX2                !
 ! D64   D(16,17,26,28)        126.6992         estimate D2E/DX2                !
 ! D65   D(16,17,26,29)       -113.3008         estimate D2E/DX2                !
 ! D66   D(18,17,26,27)       -113.3008         estimate D2E/DX2                !
 ! D67   D(18,17,26,28)          6.6992         estimate D2E/DX2                !
 ! D68   D(18,17,26,29)        126.6992         estimate D2E/DX2                !
 ! D69   D(22,17,26,27)        126.6992         estimate D2E/DX2                !
 ! D70   D(22,17,26,28)       -113.3008         estimate D2E/DX2                !
 ! D71   D(22,17,26,29)          6.6992         estimate D2E/DX2                !
 --------------------------------------------------------------------------------
 Trust Radius=3.00D-01 FncErr=1.00D-07 GrdErr=1.00D-07
 Number of steps in this run= 164 maximum allowed number of steps= 186.
 GradGradGradGradGradGradGradGradGradGradGradGradGradGradGradGradGradGrad

                          Input orientation:                          
 ---------------------------------------------------------------------
 Center     Atomic      Atomic             Coordinates (Angstroms)
 Number     Number       Type             X           Y           Z
 ---------------------------------------------------------------------
      1          6           0       -5.541438    1.601011   -3.756086
      2          6           0       -4.146287    1.598846   -3.751671
      3          6           0       -3.452575    1.597770   -2.541718
      4          6           0       -4.154048    1.600058   -1.335423
      5          6           0       -5.548863    1.602702   -1.339916
      6          6           0       -6.242637    1.602781   -2.550323
      7          1           0       -6.088180    1.601408   -4.710138
      8          1           0       -3.593770    1.596673   -4.702440
      9          1           0       -2.352903    1.595430   -2.538158
     10          1           0       -6.101994    1.604514   -0.389380
     11          1           0       -7.342235    1.604668   -2.553620
     12          6           0       -3.387768    1.598953    0.000396
     13          8           0       -4.015685    1.601007    1.090941
     14          6           0       -1.847773    1.595321    0.001638
     15          1           0       -1.313864    1.593575   -0.925636
     16          6           0       -1.166474    1.594330    1.173133
     17          6           0       -1.926961    1.596827    2.512257
     18          6           0       -2.814682    0.341553    2.600798
     19          1           0       -2.460105   -0.291287    3.387366
     20          1           0       -3.824101    0.632207    2.804493
     21          1           0       -2.776631   -0.188433    1.672053
     22          6           0       -0.917922    1.595070    3.675629
     23          1           0       -0.306783    2.471543    3.619021
     24          1           0       -1.446305    1.588168    4.606039
     25          1           0       -0.299591    0.724278    3.610144
     26          6           0       -2.808768    2.856355    2.599466
     27          1           0       -2.779807    3.377398    1.665349
     28          1           0       -3.816780    2.571600    2.817931
     29          1           0       -2.442400    3.495194    3.375713
     30          8           0        0.263503    1.590953    1.165790
     31          1           0        0.583728    2.394986    0.750354
 ---------------------------------------------------------------------
                    Distance matrix (angstroms):
                    1          2          3          4          5
     1  C    0.000000
     2  C    1.395160   0.000000
     3  C    2.416205   1.394712   0.000000
     4  C    2.790065   2.416260   1.395427   0.000000
     5  C    2.416183   2.789946   2.416356   1.394825   0.000000
     6  C    1.394829   2.416183   2.790080   2.416236   1.395138
     7  H    1.099610   2.165553   3.412986   3.889675   3.413102
     8  H    2.165414   1.099655   2.165330   3.413316   3.889601
     9  H    3.413229   2.165375   1.099680   2.165806   3.413209
    10  H    3.413055   3.889707   3.413506   2.165528   1.099761
    11  H    2.165365   3.413128   3.889684   3.412999   2.165471
    12  C    4.330065   3.827971   2.542941   1.540000   2.542987
    13  O    5.081495   4.844373   3.676046   2.430306   2.873969
    14  C    5.269126   4.401194   3.007334   2.665832   3.936736
    15  H    5.087621   4.001140   2.680639   2.869601   4.255224
    16  C    6.590717   5.756126   4.361925   3.901087   5.051813
    17  C    7.235785   6.645464   5.279220   4.445735   5.287479
    18  C    7.030747   6.611189   5.332022   4.344142   4.959382
    19  H    8.006517   7.575068   6.301395   5.362030   5.956073
    20  H    6.850476   6.634869   5.445395   4.264330   4.592688
    21  H    6.349091   5.872572   4.626369   3.760438   4.468265
    22  C    8.752561   8.098589   6.714156   5.965164   6.826519
    23  H    9.085793   8.356463   6.972388   6.333044   7.268104
    24  H    9.311038   8.783014   7.423992   6.529394   7.223958
    25  H    9.083335   8.352141   6.967762   6.331071   7.268396
    26  C    7.031104   6.611144   5.332008   4.344124   4.959687
    27  H    6.338305   5.862987   4.617262   3.748614   4.455202
    28  H    6.865435   6.649398   5.459563   4.278784   4.607230
    29  H    8.003407   7.569608   6.295766   5.358739   5.955568
    30  O    7.610670   6.605129   5.249276   5.076505   6.329478
    31  H    7.645656   6.578382   5.269254   5.237260   6.527297
                    6          7          8          9         10
     6  C    0.000000
     7  H    2.165331   0.000000
     8  H    3.412938   2.494427   0.000000
     9  H    3.889760   4.320860   2.494768   0.000000
    10  H    2.165516   4.320781   4.989362   4.321228   0.000000
    11  H    1.099604   2.494641   4.320704   4.989364   2.494420
    12  C    3.828376   5.429675   4.707347   2.741390   2.742076
    13  O    4.268269   6.160175   5.808725   3.991896   2.558133
    14  C    5.082067   6.338922   5.017655   2.589541   4.272163
    15  H    5.189654   6.092341   4.411602   1.918289   4.818078
    16  C    6.295365   7.670470   6.357210   3.896318   5.176959
    17  C    6.652429   8.335391   7.404735   5.068345   5.084334
    18  C    6.314715   8.108811   7.451147   5.309832   4.619811
    19  H    7.290487   9.072750   8.384184   6.219568   5.578640
    20  H    5.955283   7.907913   7.572139   5.624602   4.041658
    21  H    5.748923   7.409606   6.669968   4.592122   4.303743
    22  C    8.192383   9.851533   8.795010   6.377329   6.587791
    23  H    8.605226  10.176275   8.989793   6.547139   7.099541
    24  H    8.615019  10.408571   9.552982   7.201495   6.828611
    25  H    8.604820  10.173703   8.983971   6.540383   7.102034
    26  C    6.315318   8.109239   7.451232   5.309702   4.620135
    27  H    5.736928   7.399075   6.662000   4.585535   4.289750
    28  H    5.970055   7.922901   7.586580   5.637689   4.055158
    29  H    7.289783   9.069682   8.377744   6.212165   5.580612
    30  O    7.492629   8.652775   7.022443   4.534846   6.552731
    31  H    7.623734   8.658008   6.915327   4.480782   6.828083
                   11         12         13         14         15
    11  H    0.000000
    12  C    4.707530   0.000000
    13  O    4.934447   1.258400   0.000000
    14  C    6.059583   1.540000   2.426202   0.000000
    15  H    6.244335   2.271265   3.371420   1.070000   0.000000
    16  C    7.213100   2.511867   2.850404   1.355200   2.103938
    17  C    7.415413   2.905753   2.526445   2.511867   3.492135
    18  C    6.975831   2.944753   2.303975   3.043432   4.031842
    19  H    7.919921   3.988123   3.357704   3.923951   4.844436
    20  H    6.483234   2.997990   1.977761   3.562227   4.597759
    21  H    6.474277   2.522434   2.252785   2.614353   3.473216
    22  C    8.948488   4.428035   4.034450   3.789832   4.618269
    23  H    9.399497   4.832010   4.572196   4.028383   4.736976
    24  H    9.274858   4.998134   4.354055   4.621876   5.533263
    25  H    9.400315   4.830339   4.574319   4.022051   4.728396
    26  C    6.976629   2.944735   2.303953   3.043424   4.031836
    27  H    6.462044   2.510886   2.238951   2.610061   3.470478
    28  H    6.497489   3.011411   1.991008   3.572340   4.608190
    29  H    7.920825   3.985250   3.359071   3.917586   4.836461
    30  O    8.466489   3.832751   4.279854   2.410965   2.619571
    31  H    8.623325   4.119331   4.679851   2.666877   2.655571
                   16         17         18         19         20
    16  C    0.000000
    17  C    1.540000   0.000000
    18  C    2.514809   1.540000   0.000000
    19  H    3.183058   2.148263   1.070000   0.000000
    20  H    3.263433   2.148263   1.070000   1.747303   0.000000
    21  H    2.453522   2.148263   1.070000   1.747303   1.747303
    22  C    2.514810   1.540000   2.514809   2.453522   3.183059
    23  H    2.736958   2.148263   3.444298   3.510511   4.051930
    24  H    3.444299   2.148263   2.729010   2.458720   3.132626
    25  H    2.729011   2.148263   2.736958   2.397671   3.616590
    26  C    2.514809   1.540000   2.514810   3.263434   2.453522
    27  H    2.454476   2.148263   3.176891   4.065317   3.150281
    28  H    3.268721   2.148263   2.454477   3.218842   1.939453
    29  H    3.176891   2.148263   3.268722   3.786541   3.229874
    30  O    1.430000   2.571214   3.618766   3.987012   4.507000
    31  H    1.970533   3.169372   4.380630   4.840952   5.172604
                   21         22         23         24         25
    21  H    0.000000
    22  C    3.263434   0.000000
    23  H    4.119017   1.070000   0.000000
    24  H    3.678907   1.070000   1.747303   0.000000
    25  H    3.274900   1.070000   1.747303   1.747303   0.000000
    26  C    3.183059   2.514809   2.729010   2.736958   3.444299
    27  H    3.565839   3.268721   3.279215   3.691509   4.119800
    28  H    3.164290   3.176891   3.601642   3.127878   4.051027
    29  H    4.072258   2.454477   2.380739   2.478439   3.510636
    30  O    3.558782   2.774000   2.668147   3.841714   2.653878
    31  H    4.337695   3.384088   3.004683   4.431512   3.427815
                   26         27         28         29         30
    26  C    0.000000
    27  H    1.070000   0.000000
    28  H    1.070000   1.747303   0.000000
    29  H    1.070000   1.747303   1.747303   0.000000
    30  O    3.618773   3.564082   4.509983   3.978921   0.000000
    31  H    3.891157   3.621563   4.865237   4.154566   0.960000
                   31
    31  H    0.000000
 Stoichiometry    C13H16O2
 Framework group  C1[X(C13H16O2)]
 Deg. of freedom    87
 Full point group                 C1      NOp   1
 Largest Abelian subgroup         C1      NOp   1
 Largest concise Abelian subgroup C1      NOp   1
                         Standard orientation:                         
 ---------------------------------------------------------------------
 Center     Atomic      Atomic             Coordinates (Angstroms)
 Number     Number       Type             X           Y           Z
 ---------------------------------------------------------------------
      1          6           0       -4.590601    0.161230    0.001032
      2          6           0       -3.802025    1.311961   -0.019830
      3          6           0       -2.411445    1.204690   -0.021676
      4          6           0       -1.808832   -0.053747   -0.001455
      5          6           0       -2.597282   -1.204150    0.019880
      6          6           0       -3.988275   -1.096691    0.020727
      7          1           0       -5.686938    0.246014    0.002033
      8          1           0       -4.277194    2.303521   -0.036132
      9          1           0       -1.789816    2.111654   -0.038753
     10          1           0       -2.122653   -2.196091    0.035827
     11          1           0       -4.609646   -2.003747    0.037351
     12          6           0       -0.273368   -0.171842   -0.003417
     13          8           0        0.274934   -1.304363    0.014765
     14          6           0        0.594074    1.100382   -0.027712
     15          1           0        0.127860    2.063349   -0.043172
     16          6           0        1.945875    1.004487   -0.029578
     17          6           0        2.625099   -0.377455   -0.007419
     18          6           0        2.196700   -1.179982   -1.250007
     19          1           0        3.045374   -1.338922   -1.881981
     20          1           0        1.797685   -2.124593   -0.944397
     21          1           0        1.449388   -0.634030   -1.786999
     22          6           0        4.154576   -0.197878   -0.014508
     23          1           0        4.453115    0.352351    0.853262
     24          1           0        4.626477   -1.158171   -0.007748
     25          1           0        4.446825    0.336959   -0.893962
     26          6           0        2.203243   -1.136447    1.264418
     27          1           0        1.448178   -0.579149    1.778417
     28          1           0        1.816242   -2.096875    0.994769
     29          1           0        3.052200   -1.260671    1.903745
     30          8           0        2.744323    2.190603   -0.052202
     31          1           0        2.582417    2.701133    0.744507
 ---------------------------------------------------------------------
 Rotational constants (GHZ):      1.5030774      0.3122154      0.2741199
 Standard basis: 3-21G (6D, 7F)
 There are   167 symmetry adapted basis functions of A   symmetry.
 Integral buffers will be    262144 words long.
 Raffenetti 1 integral format.
 Two-electron integral symmetry is turned on.
   167 basis functions,   273 primitive gaussians,   167 cartesian basis functions
    55 alpha electrons       55 beta electrons
       nuclear repulsion energy       975.1031083234 Hartrees.
 NAtoms=   31 NActive=   31 NUniq=   31 SFac= 7.50D-01 NAtFMM=   80 NAOKFM=F Big=F
 One-electron integrals computed using PRISM.
 NBasis=   167 RedAO= T  NBF=   167
 NBsUse=   167 1.00D-06 NBFU=   167
 Harris functional with IExCor=  205 diagonalized for initial guess.
 ExpMin= 1.83D-01 ExpMax= 3.22D+02 ExpMxC= 3.22D+02 IAcc=1 IRadAn=         1 AccDes= 0.00D+00
 HarFok:  IExCor=  205 AccDes= 0.00D+00 IRadAn=         1 IDoV= 1
 ScaDFX=  1.000000  1.000000  1.000000  1.000000
 FoFCou: FMM=F IPFlag=           0 FMFlag=      100000 FMFlg1=           0
         NFxFlg=           0 DoJE=T BraDBF=F KetDBF=T FulRan=T
         Omega=  0.000000  0.000000  1.000000  0.000000  0.000000 ICntrl=     500 IOpCl=  0
         NMat0=    1 NMatS0=    1 NMatT0=    0 NMatD0=    1 NMtDS0=    0 NMtDT0=    0
         I1Cent=           4 NGrid=           0.
 Petite list used in FoFCou.
 Initial guess orbital symmetries:
       Occupied  (A) (A) (A) (A) (A) (A) (A) (A) (A) (A) (A) (A)
                 (A) (A) (A) (A) (A) (A) (A) (A) (A) (A) (A) (A)
                 (A) (A) (A) (A) (A) (A) (A) (A) (A) (A) (A) (A)
                 (A) (A) (A) (A) (A) (A) (A) (A) (A) (A) (A) (A)
                 (A) (A) (A) (A) (A) (A) (A)
       Virtual   (A) (A) (A) (A) (A) (A) (A) (A) (A) (A) (A) (A)
                 (A) (A) (A) (A) (A) (A) (A) (A) (A) (A) (A) (A)
                 (A) (A) (A) (A) (A) (A) (A) (A) (A) (A) (A) (A)
                 (A) (A) (A) (A) (A) (A) (A) (A) (A) (A) (A) (A)
                 (A) (A) (A) (A) (A) (A) (A) (A) (A) (A) (A) (A)
                 (A) (A) (A) (A) (A) (A) (A) (A) (A) (A) (A) (A)
                 (A) (A) (A) (A) (A) (A) (A) (A) (A) (A) (A) (A)
                 (A) (A) (A) (A) (A) (A) (A) (A) (A) (A) (A) (A)
                 (A) (A) (A) (A) (A) (A) (A) (A) (A) (A) (A) (A)
                 (A) (A) (A) (A)
 The electronic state of the initial guess is 1-A.
 Requested convergence on RMS density matrix=1.00D-08 within 128 cycles.
 Requested convergence on MAX density matrix=1.00D-06.
 Requested convergence on             energy=1.00D-06.
 No special actions if energy rises.
 Integral accuracy reduced to 1.0D-05 until final iterations.
 Initial convergence to 1.0D-05 achieved.  Increase integral accuracy.
 SCF Done:  E(RHF) =  -647.621447844     A.U. after   15 cycles
             Convg  =    0.7151D-08             -V/T =  2.0024

 **********************************************************************

            Population analysis using the SCF density.

 **********************************************************************

 Orbital symmetries:
       Occupied  (A) (A) (A) (A) (A) (A) (A) (A) (A) (A) (A) (A)
                 (A) (A) (A) (A) (A) (A) (A) (A) (A) (A) (A) (A)
                 (A) (A) (A) (A) (A) (A) (A) (A) (A) (A) (A) (A)
                 (A) (A) (A) (A) (A) (A) (A) (A) (A) (A) (A) (A)
                 (A) (A) (A) (A) (A) (A) (A)
       Virtual   (A) (A) (A) (A) (A) (A) (A) (A) (A) (A) (A) (A)
                 (A) (A) (A) (A) (A) (A) (A) (A) (A) (A) (A) (A)
                 (A) (A) (A) (A) (A) (A) (A) (A) (A) (A) (A) (A)
                 (A) (A) (A) (A) (A) (A) (A) (A) (A) (A) (A) (A)
                 (A) (A) (A) (A) (A) (A) (A) (A) (A) (A) (A) (A)
                 (A) (A) (A) (A) (A) (A) (A) (A) (A) (A) (A) (A)
                 (A) (A) (A) (A) (A) (A) (A) (A) (A) (A) (A) (A)
                 (A) (A) (A) (A) (A) (A) (A) (A) (A) (A) (A) (A)
                 (A) (A) (A) (A) (A) (A) (A) (A) (A) (A) (A) (A)
                 (A) (A) (A) (A)
 The electronic state is 1-A.
 Alpha  occ. eigenvalues --  -20.48759 -20.44812 -11.29948 -11.27624 -11.20677
 Alpha  occ. eigenvalues --  -11.20370 -11.20093 -11.19859 -11.19660 -11.19490
 Alpha  occ. eigenvalues --  -11.18188 -11.17945 -11.13747 -11.12805 -11.12381
 Alpha  occ. eigenvalues --   -1.38846  -1.38175  -1.17047  -1.11335  -1.05344
 Alpha  occ. eigenvalues --   -1.02793  -1.02272  -0.93143  -0.92582  -0.88289
 Alpha  occ. eigenvalues --   -0.84471  -0.82564  -0.78065  -0.73798  -0.70701
 Alpha  occ. eigenvalues --   -0.68032  -0.66939  -0.64354  -0.62982  -0.62332
 Alpha  occ. eigenvalues --   -0.60512  -0.60309  -0.59690  -0.59150  -0.55860
 Alpha  occ. eigenvalues --   -0.54935  -0.53799  -0.53034  -0.51984  -0.51647
 Alpha  occ. eigenvalues --   -0.50929  -0.49890  -0.46660  -0.45218  -0.44646
 Alpha  occ. eigenvalues --   -0.44033  -0.40378  -0.35874  -0.35019  -0.34884
 Alpha virt. eigenvalues --    0.07018   0.13277   0.15140   0.23913   0.24117
 Alpha virt. eigenvalues --    0.26301   0.27651   0.30276   0.31676   0.31994
 Alpha virt. eigenvalues --    0.33141   0.34044   0.35774   0.35910   0.36039
 Alpha virt. eigenvalues --    0.36795   0.37532   0.37957   0.39272   0.40993
 Alpha virt. eigenvalues --    0.41400   0.41886   0.44005   0.45402   0.46588
 Alpha virt. eigenvalues --    0.48543   0.49671   0.52978   0.53038   0.53795
 Alpha virt. eigenvalues --    0.57001   0.62206   0.67226   0.71491   0.78135
 Alpha virt. eigenvalues --    0.81941   0.89483   0.92151   0.92309   0.93329
 Alpha virt. eigenvalues --    0.93672   0.95676   0.98009   1.00079   1.00425
 Alpha virt. eigenvalues --    1.01104   1.02153   1.03290   1.03408   1.05931
 Alpha virt. eigenvalues --    1.06521   1.06677   1.07184   1.07293   1.10402
 Alpha virt. eigenvalues --    1.10778   1.11199   1.11300   1.14913   1.17126
 Alpha virt. eigenvalues --    1.19403   1.23347   1.25228   1.26008   1.28167
 Alpha virt. eigenvalues --    1.28419   1.29352   1.30582   1.31207   1.33794
 Alpha virt. eigenvalues --    1.35875   1.37586   1.38436   1.39344   1.41819
 Alpha virt. eigenvalues --    1.43484   1.43621   1.44199   1.44946   1.49097
 Alpha virt. eigenvalues --    1.50430   1.50917   1.51603   1.54786   1.56641
 Alpha virt. eigenvalues --    1.58817   1.61698   1.64374   1.70361   1.71066
 Alpha virt. eigenvalues --    1.74695   1.78221   1.78707   1.80334   1.82833
 Alpha virt. eigenvalues --    1.88152   1.94663   2.00741   2.01536   2.07846
 Alpha virt. eigenvalues --    2.10562   2.12530   2.16121   2.19481   2.21928
 Alpha virt. eigenvalues --    2.35194   2.35838   2.50758   2.73723   2.96651
 Alpha virt. eigenvalues --    3.49470   3.82913
          Condensed to atoms (all electrons):
              1          2          3          4          5          6
     1  C    5.168513   0.471123  -0.107357  -0.001745  -0.104078   0.461728
     2  C    0.471123   5.166045   0.473211  -0.106361  -0.002948  -0.109428
     3  C   -0.107357   0.473211   5.197203   0.416916  -0.085812  -0.002895
     4  C   -0.001745  -0.106361   0.416916   5.627806   0.417708  -0.108141
     5  C   -0.104078  -0.002948  -0.085812   0.417708   5.203776   0.443185
     6  C    0.461728  -0.109428  -0.002895  -0.108141   0.443185   5.207692
     7  H    0.393420  -0.030698   0.002325  -0.000162   0.002281  -0.030440
     8  H   -0.030314   0.395299  -0.032070   0.002275  -0.000099   0.002085
     9  H    0.001913  -0.025187   0.390028  -0.032693   0.001685  -0.000036
    10  H    0.001795  -0.000006   0.001500  -0.034194   0.388064  -0.024617
    11  H   -0.031090   0.002094  -0.000081   0.002440  -0.031642   0.395450
    12  C   -0.000132   0.001422  -0.031371   0.195367  -0.052732   0.003419
    13  O   -0.000003  -0.000005   0.001945  -0.088416   0.005214   0.000283
    14  C   -0.000017   0.000141  -0.001743  -0.118901   0.004116   0.000028
    15  H    0.000003   0.000022   0.000274  -0.001572  -0.000056  -0.000003
    16  C    0.000000  -0.000001  -0.000011   0.002972  -0.000025   0.000000
    17  C    0.000000   0.000000   0.000002  -0.000164   0.000001   0.000000
    18  C    0.000000   0.000000  -0.000006   0.000173  -0.000006   0.000000
    19  H    0.000000   0.000000   0.000000   0.000010   0.000000   0.000000
    20  H    0.000000   0.000000   0.000001  -0.000143   0.000008   0.000000
    21  H    0.000000   0.000000   0.000008  -0.000459   0.000013   0.000000
    22  C    0.000000   0.000000   0.000000   0.000003   0.000000   0.000000
    23  H    0.000000   0.000000   0.000000   0.000000   0.000000   0.000000
    24  H    0.000000   0.000000   0.000000   0.000000   0.000000   0.000000
    25  H    0.000000   0.000000   0.000000   0.000000   0.000000   0.000000
    26  C    0.000000   0.000000  -0.000006   0.000202  -0.000006   0.000000
    27  H    0.000000   0.000000   0.000009  -0.000505   0.000013   0.000000
    28  H    0.000000   0.000000   0.000001  -0.000132   0.000007   0.000000
    29  H    0.000000   0.000000   0.000000   0.000010   0.000000   0.000000
    30  O    0.000000   0.000000   0.000001  -0.000009   0.000000   0.000000
    31  H    0.000000   0.000000  -0.000001   0.000002   0.000000   0.000000
              7          8          9         10         11         12
     1  C    0.393420  -0.030314   0.001913   0.001795  -0.031090  -0.000132
     2  C   -0.030698   0.395299  -0.025187  -0.000006   0.002094   0.001422
     3  C    0.002325  -0.032070   0.390028   0.001500  -0.000081  -0.031371
     4  C   -0.000162   0.002275  -0.032693  -0.034194   0.002440   0.195367
     5  C    0.002281  -0.000099   0.001685   0.388064  -0.031642  -0.052732
     6  C   -0.030440   0.002085  -0.000036  -0.024617   0.395450   0.003419
     7  H    0.418245  -0.001229  -0.000029  -0.000028  -0.001194   0.000000
     8  H   -0.001229   0.420650  -0.000966   0.000001  -0.000031  -0.000033
     9  H   -0.000029  -0.000966   0.409636  -0.000036   0.000001  -0.001437
    10  H   -0.000028   0.000001  -0.000036   0.382771  -0.001051   0.000133
    11  H   -0.001194  -0.000031   0.000001  -0.001051   0.418567  -0.000030
    12  C    0.000000  -0.000033  -0.001437   0.000133  -0.000030   4.668057
    13  O    0.000000   0.000000   0.000016   0.006102   0.000001   0.513448
    14  C    0.000000   0.000004  -0.000974   0.000243   0.000000   0.225948
    15  H    0.000000  -0.000006   0.005507  -0.000002   0.000000  -0.015060
    16  C    0.000000   0.000000  -0.000028  -0.000004   0.000000  -0.060865
    17  C    0.000000   0.000000  -0.000002   0.000000   0.000000  -0.002323
    18  C    0.000000   0.000000   0.000000  -0.000004   0.000000  -0.011005
    19  H    0.000000   0.000000   0.000000   0.000000   0.000000   0.000421
    20  H    0.000000   0.000000   0.000000   0.000012   0.000000  -0.001521
    21  H    0.000000   0.000000  -0.000001   0.000004   0.000000  -0.001071
    22  C    0.000000   0.000000   0.000000   0.000000   0.000000   0.000143
    23  H    0.000000   0.000000   0.000000   0.000000   0.000000  -0.000012
    24  H    0.000000   0.000000   0.000000   0.000000   0.000000   0.000000
    25  H    0.000000   0.000000   0.000000   0.000000   0.000000  -0.000010
    26  C    0.000000   0.000000   0.000000  -0.000004   0.000000  -0.010972
    27  H    0.000000   0.000000  -0.000001   0.000005   0.000000  -0.001208
    28  H    0.000000   0.000000   0.000000   0.000012   0.000000  -0.001378
    29  H    0.000000   0.000000   0.000000   0.000000   0.000000   0.000425
    30  O    0.000000   0.000000  -0.000005   0.000000   0.000000   0.001475
    31  H    0.000000   0.000000   0.000000   0.000000   0.000000   0.000008
             13         14         15         16         17         18
     1  C   -0.000003  -0.000017   0.000003   0.000000   0.000000   0.000000
     2  C   -0.000005   0.000141   0.000022  -0.000001   0.000000   0.000000
     3  C    0.001945  -0.001743   0.000274  -0.000011   0.000002  -0.000006
     4  C   -0.088416  -0.118901  -0.001572   0.002972  -0.000164   0.000173
     5  C    0.005214   0.004116  -0.000056  -0.000025   0.000001  -0.000006
     6  C    0.000283   0.000028  -0.000003   0.000000   0.000000   0.000000
     7  H    0.000000   0.000000   0.000000   0.000000   0.000000   0.000000
     8  H    0.000000   0.000004  -0.000006   0.000000   0.000000   0.000000
     9  H    0.000016  -0.000974   0.005507  -0.000028  -0.000002   0.000000
    10  H    0.006102   0.000243  -0.000002  -0.000004   0.000000  -0.000004
    11  H    0.000001   0.000000   0.000000   0.000000   0.000000   0.000000
    12  C    0.513448   0.225948  -0.015060  -0.060865  -0.002323  -0.011005
    13  O    8.344383  -0.095207   0.000901   0.003997  -0.008125  -0.024740
    14  C   -0.095207   5.746759   0.387587   0.419986  -0.114810  -0.001149
    15  H    0.000901   0.387587   0.424434  -0.045234   0.002425  -0.000043
    16  C    0.003997   0.419986  -0.045234   4.972437   0.217647  -0.079367
    17  C   -0.008125  -0.114810   0.002425   0.217647   6.031115   0.217343
    18  C   -0.024740  -0.001149  -0.000043  -0.079367   0.217343   5.385737
    19  H    0.001871  -0.000278   0.000000   0.002755  -0.054357   0.374106
    20  H   -0.007201   0.000871  -0.000001   0.003013  -0.044307   0.393910
    21  H   -0.006723   0.000068  -0.000013  -0.005225  -0.051756   0.392168
    22  C    0.000462   0.003696  -0.000040  -0.081982   0.243772  -0.066550
    23  H   -0.000001   0.000075   0.000000  -0.001388  -0.050937   0.004031
    24  H   -0.000001  -0.000034   0.000000   0.004914  -0.047671  -0.001831
    25  H   -0.000001   0.000052   0.000001  -0.002251  -0.047335  -0.001057
    26  C   -0.023118  -0.003078  -0.000047  -0.077176   0.214383  -0.071416
    27  H   -0.007110   0.000661   0.000006  -0.004496  -0.052331   0.003952
    28  H   -0.007328   0.000888   0.000000   0.002749  -0.042954  -0.007383
    29  H    0.001894  -0.000271   0.000000   0.002698  -0.054433   0.003163
    30  O    0.000000  -0.060563  -0.000979   0.290120  -0.050867   0.000924
    31  H    0.000002  -0.002497   0.000902  -0.044676   0.004066  -0.000077
             19         20         21         22         23         24
     1  C    0.000000   0.000000   0.000000   0.000000   0.000000   0.000000
     2  C    0.000000   0.000000   0.000000   0.000000   0.000000   0.000000
     3  C    0.000000   0.000001   0.000008   0.000000   0.000000   0.000000
     4  C    0.000010  -0.000143  -0.000459   0.000003   0.000000   0.000000
     5  C    0.000000   0.000008   0.000013   0.000000   0.000000   0.000000
     6  C    0.000000   0.000000   0.000000   0.000000   0.000000   0.000000
     7  H    0.000000   0.000000   0.000000   0.000000   0.000000   0.000000
     8  H    0.000000   0.000000   0.000000   0.000000   0.000000   0.000000
     9  H    0.000000   0.000000  -0.000001   0.000000   0.000000   0.000000
    10  H    0.000000   0.000012   0.000004   0.000000   0.000000   0.000000
    11  H    0.000000   0.000000   0.000000   0.000000   0.000000   0.000000
    12  C    0.000421  -0.001521  -0.001071   0.000143  -0.000012   0.000000
    13  O    0.001871  -0.007201  -0.006723   0.000462  -0.000001  -0.000001
    14  C   -0.000278   0.000871   0.000068   0.003696   0.000075  -0.000034
    15  H    0.000000  -0.000001  -0.000013  -0.000040   0.000000   0.000000
    16  C    0.002755   0.003013  -0.005225  -0.081982  -0.001388   0.004914
    17  C   -0.054357  -0.044307  -0.051756   0.243772  -0.050937  -0.047671
    18  C    0.374106   0.393910   0.392168  -0.066550   0.004031  -0.001831
    19  H    0.553562  -0.028939  -0.027926  -0.005723   0.000317   0.000072
    20  H   -0.028939   0.470440  -0.020431   0.002086  -0.000095   0.000131
    21  H   -0.027926  -0.020431   0.509407   0.003041  -0.000099   0.000025
    22  C   -0.005723   0.002086   0.003041   5.329518   0.382442   0.382535
    23  H    0.000317  -0.000095  -0.000099   0.382442   0.521430  -0.026086
    24  H    0.000072   0.000131   0.000025   0.382535  -0.026086   0.514099
    25  H    0.000736   0.000015   0.000022   0.383895  -0.023987  -0.025211
    26  C    0.003152  -0.007533   0.003958  -0.068685  -0.001087  -0.001776
    27  H   -0.000128   0.000466  -0.000054   0.003214   0.000019   0.000025
    28  H    0.000164   0.000367   0.000423   0.002152   0.000011   0.000124
    29  H    0.000008   0.000160  -0.000125  -0.005900   0.000831   0.000099
    30  O   -0.000020  -0.000007   0.000012   0.005827   0.002183   0.000185
    31  H    0.000001   0.000001   0.000001  -0.000353  -0.000048  -0.000005
             25         26         27         28         29         30
     1  C    0.000000   0.000000   0.000000   0.000000   0.000000   0.000000
     2  C    0.000000   0.000000   0.000000   0.000000   0.000000   0.000000
     3  C    0.000000  -0.000006   0.000009   0.000001   0.000000   0.000001
     4  C    0.000000   0.000202  -0.000505  -0.000132   0.000010  -0.000009
     5  C    0.000000  -0.000006   0.000013   0.000007   0.000000   0.000000
     6  C    0.000000   0.000000   0.000000   0.000000   0.000000   0.000000
     7  H    0.000000   0.000000   0.000000   0.000000   0.000000   0.000000
     8  H    0.000000   0.000000   0.000000   0.000000   0.000000   0.000000
     9  H    0.000000   0.000000  -0.000001   0.000000   0.000000  -0.000005
    10  H    0.000000  -0.000004   0.000005   0.000012   0.000000   0.000000
    11  H    0.000000   0.000000   0.000000   0.000000   0.000000   0.000000
    12  C   -0.000010  -0.010972  -0.001208  -0.001378   0.000425   0.001475
    13  O   -0.000001  -0.023118  -0.007110  -0.007328   0.001894   0.000000
    14  C    0.000052  -0.003078   0.000661   0.000888  -0.000271  -0.060563
    15  H    0.000001  -0.000047   0.000006   0.000000   0.000000  -0.000979
    16  C   -0.002251  -0.077176  -0.004496   0.002749   0.002698   0.290120
    17  C   -0.047335   0.214383  -0.052331  -0.042954  -0.054433  -0.050867
    18  C   -0.001057  -0.071416   0.003952  -0.007383   0.003163   0.000924
    19  H    0.000736   0.003152  -0.000128   0.000164   0.000008  -0.000020
    20  H    0.000015  -0.007533   0.000466   0.000367   0.000160  -0.000007
    21  H    0.000022   0.003958  -0.000054   0.000423  -0.000125   0.000012
    22  C    0.383895  -0.068685   0.003214   0.002152  -0.005900   0.005827
    23  H   -0.023987  -0.001087   0.000019   0.000011   0.000831   0.002183
    24  H   -0.025211  -0.001776   0.000025   0.000124   0.000099   0.000185
    25  H    0.495402   0.003842  -0.000097  -0.000088   0.000305   0.001247
    26  C    0.003842   5.395632   0.390027   0.393616   0.372601   0.001096
    27  H   -0.000097   0.390027   0.520120  -0.019834  -0.028885  -0.000038
    28  H   -0.000088   0.393616  -0.019834   0.464394  -0.028604  -0.000009
    29  H    0.000305   0.372601  -0.028885  -0.028604   0.557719  -0.000020
    30  O    0.001247   0.001096  -0.000038  -0.000009  -0.000020   8.229042
    31  H   -0.000101  -0.000227  -0.000035   0.000001   0.000018   0.272079
             31
     1  C    0.000000
     2  C    0.000000
     3  C   -0.000001
     4  C    0.000002
     5  C    0.000000
     6  C    0.000000
     7  H    0.000000
     8  H    0.000000
     9  H    0.000000
    10  H    0.000000
    11  H    0.000000
    12  C    0.000008
    13  O    0.000002
    14  C   -0.002497
    15  H    0.000902
    16  C   -0.044676
    17  C    0.004066
    18  C   -0.000077
    19  H    0.000001
    20  H    0.000001
    21  H    0.000001
    22  C   -0.000353
    23  H   -0.000048
    24  H   -0.000005
    25  H   -0.000101
    26  C   -0.000227
    27  H   -0.000035
    28  H    0.000001
    29  H    0.000018
    30  O    0.272079
    31  H    0.369218
 Mulliken atomic charges:
              1
     1  C   -0.223759
     2  C   -0.234723
     3  C   -0.222074
     4  C   -0.172291
     5  C   -0.188668
     6  C   -0.238312
     7  H    0.247508
     8  H    0.244431
     9  H    0.252608
    10  H    0.279302
    11  H    0.246567
    12  C    0.580893
    13  O   -0.612538
    14  C   -0.391602
    15  H    0.240993
    16  C    0.479441
    17  C   -0.308385
    18  C   -0.510873
    19  H    0.180196
    20  H    0.238698
    21  H    0.204733
    22  C   -0.513554
    23  H    0.192402
    24  H    0.200406
    25  H    0.214621
    26  C   -0.513378
    27  H    0.196205
    28  H    0.242803
    29  H    0.178306
    30  O   -0.691674
    31  H    0.401717
 Sum of Mulliken atomic charges =   0.00000
 Mulliken charges with hydrogens summed into heavy atoms:
              1
     1  C    0.023750
     2  C    0.009708
     3  C    0.030534
     4  C   -0.172291
     5  C    0.090634
     6  C    0.008255
    12  C    0.580893
    13  O   -0.612538
    14  C   -0.150609
    16  C    0.479441
    17  C   -0.308385
    18  C    0.112753
    22  C    0.093875
    26  C    0.103936
    30  O   -0.289957
 Sum of Mulliken charges with hydrogens summed into heavy atoms =   0.00000
 Electronic spatial extent (au):  <R**2>=           4012.6355
 Charge=              0.0000 electrons
 Dipole moment (field-independent basis, Debye):
    X=             -2.3725    Y=              2.0007    Z=              1.5349  Tot=              3.4623
 Quadrupole moment (field-independent basis, Debye-Ang):
   XX=            -83.7142   YY=            -84.9717   ZZ=            -96.2707
   XY=             -0.1142   XZ=              4.0909   YZ=              4.5915
 Traceless Quadrupole moment (field-independent basis, Debye-Ang):
   XX=              4.6047   YY=              3.3471   ZZ=             -7.9518
   XY=             -0.1142   XZ=              4.0909   YZ=              4.5915
 Octapole moment (field-independent basis, Debye-Ang**2):
  XXX=            -62.5852  YYY=             19.4551  ZZZ=              1.2760  XYY=             -9.9740
  XXY=             -7.3244  XXZ=             10.5146  XZZ=             22.8832  YZZ=              4.5632
  YYZ=             13.3333  XYZ=             13.0515
 Hexadecapole moment (field-independent basis, Debye-Ang**3):
 XXXX=          -4080.1206 YYYY=           -730.1175 ZZZZ=           -281.1127 XXXY=             -4.5089
 XXXZ=             25.5115 YYYX=             44.8164 YYYZ=             35.9887 ZZZX=              2.9109
 ZZZY=              4.9540 XXYY=           -810.4543 XXZZ=           -836.0972 YYZZ=           -185.1060
 XXYZ=             30.8657 YYXZ=             35.0649 ZZXY=             23.2446
 N-N= 9.751031083234D+02 E-N=-3.462710842925D+03  KE= 6.460391999621D+02
 Calling FoFJK, ICntrl=      2127 FMM=F ISym2X=0 I1Cent= 0 IOpClX= 0 NMat=1 NMatS=1 NMatT=0.
 ***** Axes restored to original set *****
 -------------------------------------------------------------------
 Center     Atomic                   Forces (Hartrees/Bohr)
 Number     Number              X              Y              Z
 -------------------------------------------------------------------
      1        6          -0.003174254    0.000034349   -0.006759266
      2        6           0.005344261   -0.000125483   -0.007425154
      3        6           0.005667993    0.000174208   -0.005271762
      4        6           0.020623984   -0.000125455    0.012083125
      5        6          -0.008192250    0.000005969    0.008342859
      6        6          -0.006548386    0.000111993    0.002396868
      7        1           0.009907882   -0.000028459    0.016956950
      8        1          -0.009800150    0.000049225    0.017197338
      9        1          -0.023758212   -0.000157091   -0.003495869
     10        1           0.013325783   -0.000083037   -0.016311409
     11        1           0.019970238   -0.000054938    0.000472025
     12        6          -0.009489935   -0.000466196    0.024467680
     13        8           0.000822683    0.000583683   -0.107175392
     14        6          -0.017880807    0.001963918    0.019031213
     15        1          -0.001977931   -0.001064134    0.003382568
     16        6          -0.010056376    0.000172293   -0.025106243
     17        6           0.020365657   -0.003878338    0.005065387
     18        6           0.007242593   -0.012478047    0.013903821
     19        1           0.005917593   -0.009408620    0.006964927
     20        1           0.000355684   -0.010704861    0.006132262
     21        1          -0.003735975   -0.011200009    0.002034561
     22        6          -0.003127355   -0.000769513   -0.013211432
     23        1           0.007793390    0.006395791    0.002841376
     24        1          -0.004976637    0.000315861    0.008459843
     25        1           0.007602993   -0.005892051    0.002186612
     26        6           0.007560634    0.013111278    0.012965242
     27        1          -0.004244042    0.011598591    0.002164516
     28        1           0.000384766    0.010429089    0.005764371
     29        1           0.005988562    0.009388283    0.007170888
     30        8          -0.038502256   -0.003134160    0.010854024
     31        1           0.006589867    0.005235861   -0.006081928
 -------------------------------------------------------------------
 Cartesian Forces:  Max     0.107175392 RMS     0.015086256

 GradGradGradGradGradGradGradGradGradGradGradGradGradGradGradGradGradGrad
 Berny optimization.
 Internal  Forces:  Max     0.235360112 RMS     0.034456550
 Search for a local minimum.
 Step number   1 out of a maximum of  164
 All quantities printed in internal units (Hartrees-Bohrs-Radians)
 Mixed Optimization -- RFO/linear search
 Second derivative matrix not updated -- first step.
     Eigenvalues ---    0.00237   0.00237   0.00237   0.00237   0.00237
     Eigenvalues ---    0.00237   0.00237   0.01228   0.01295   0.01459
     Eigenvalues ---    0.01564   0.02152   0.02154   0.02154   0.02155
     Eigenvalues ---    0.02155   0.02155   0.02156   0.02157   0.02681
     Eigenvalues ---    0.04739   0.05241   0.05241   0.05720   0.05720
     Eigenvalues ---    0.05720   0.05720   0.05720   0.05720   0.15006
     Eigenvalues ---    0.15006   0.16000   0.16000   0.16000   0.16000
     Eigenvalues ---    0.16000   0.16000   0.16000   0.16000   0.16000
     Eigenvalues ---    0.16000   0.16000   0.16000   0.16000   0.16000
     Eigenvalues ---    0.16000   0.16000   0.22000   0.22000   0.22000
     Eigenvalues ---    0.23486   0.25000   0.25000   0.25000   0.25000
     Eigenvalues ---    0.25000   0.28519   0.28519   0.28519   0.28519
     Eigenvalues ---    0.28519   0.28519   0.33709   0.33718   0.33720
     Eigenvalues ---    0.33725   0.33726   0.37230   0.37230   0.37230
     Eigenvalues ---    0.37230   0.37230   0.37230   0.37230   0.37230
     Eigenvalues ---    0.37230   0.37230   0.40989   0.42121   0.42300
     Eigenvalues ---    0.46412   0.46453   0.46466   0.46497   0.53930
     Eigenvalues ---    0.55473   0.802091000.000001000.000001000.00000
     Eigenvalues --- 1000.000001000.000001000.000001000.000001000.00000
     Eigenvalues --- 1000.000001000.000001000.000001000.000001000.00000
     Eigenvalues --- 1000.000001000.000001000.000001000.000001000.00000
     Eigenvalues --- 1000.000001000.000001000.000001000.000001000.00000
     Eigenvalues --- 1000.000001000.000001000.000001000.000001000.00000
     Eigenvalues --- 1000.000001000.000001000.000001000.000001000.00000
     Eigenvalues --- 1000.000001000.000001000.000001000.000001000.00000
     Eigenvalues --- 1000.000001000.000001000.000001000.000001000.00000
     Eigenvalues --- 1000.000001000.000001000.000001000.000001000.00000
     Eigenvalues --- 1000.000001000.000001000.000001000.000001000.00000
     Eigenvalues --- 1000.000001000.000001000.000001000.000001000.00000
     Eigenvalues --- 1000.000001000.000001000.000001000.000001000.00000
     Eigenvalues --- 1000.000001000.000001000.000001000.00000
 RFO step:  Lambda=-3.22170743D-01 EMin= 2.36824033D-03
 Linear search not attempted -- first point.
 Maximum step size (   0.300) exceeded in Quadratic search.
    -- Step size scaled by   0.393
 Iteration  1 RMS(Cart)=  0.22864354 RMS(Int)=  0.01098744
 Iteration  2 RMS(Cart)=  0.09309952 RMS(Int)=  0.00147942
 Iteration  3 RMS(Cart)=  0.00354205 RMS(Int)=  0.00007235
 Iteration  4 RMS(Cart)=  0.00000269 RMS(Int)=  0.00007234
 Iteration  5 RMS(Cart)=  0.00000000 RMS(Int)=  0.00007234
 Variable       Old X    -DE/DX   Delta X   Delta X   Delta X     New X
                                 (Linear)    (Quad)   (Total)
    R1        2.63647  -0.01227   0.00000  -0.00613  -0.00613   2.63034
    R2        2.63584  -0.01116   0.00000  -0.00562  -0.00562   2.63023
    R3        2.07796  -0.01964   0.00000  -0.01171  -0.01171   2.06625
    R4        2.63562  -0.01280   0.00000  -0.00635  -0.00635   2.62927
    R5        2.07805  -0.01979   0.00000  -0.01181  -0.01181   2.06624
    R6        2.63697  -0.00648   0.00000  -0.00320  -0.00320   2.63378
    R7        2.07809  -0.02377   0.00000  -0.01418  -0.01418   2.06392
    R8        2.63584  -0.01304   0.00000  -0.00652  -0.00652   2.62932
    R9        2.91018  -0.02740   0.00000  -0.01774  -0.01774   2.89244
   R10        2.63643  -0.01482   0.00000  -0.00746  -0.00746   2.62897
   R11        2.07825  -0.02080   0.00000  -0.01241  -0.01241   2.06584
   R12        2.07795  -0.01997   0.00000  -0.01191  -0.01191   2.06604
   R13        2.37803  -0.09329   0.00000  -0.03263  -0.03263   2.34540
   R14        2.91018  -0.01465   0.00000  -0.00948  -0.00948   2.90069
   R15        2.02201  -0.00392   0.00000  -0.00222  -0.00222   2.01979
   R16        2.56096   0.03899   0.00000   0.01780   0.01780   2.57876
   R17        2.91018   0.03102   0.00000   0.02009   0.02009   2.93026
   R18        2.70231  -0.03194   0.00000  -0.01716  -0.01716   2.68515
   R19        2.91018   0.03173   0.00000   0.02054   0.02054   2.93072
   R20        2.91018   0.00499   0.00000   0.00323   0.00323   2.91341
   R21        2.91018   0.03246   0.00000   0.02102   0.02102   2.93120
   R22        2.02201   0.01265   0.00000   0.00716   0.00716   2.02917
   R23        2.02201  -0.00208   0.00000  -0.00118  -0.00118   2.02083
   R24        2.02201   0.00365   0.00000   0.00207   0.00207   2.02407
   R25        2.02201   0.00954   0.00000   0.00540   0.00540   2.02741
   R26        2.02201   0.00981   0.00000   0.00556   0.00556   2.02756
   R27        2.02201   0.00905   0.00000   0.00513   0.00513   2.02713
   R28        2.02201   0.00364   0.00000   0.00206   0.00206   2.02407
   R29        2.02201  -0.00196   0.00000  -0.00111  -0.00111   2.02090
   R30        2.02201   0.01286   0.00000   0.00728   0.00728   2.02929
   R31        1.81414   0.00922   0.00000   0.00413   0.00413   1.81827
    A1        2.09437   0.00023   0.00000   0.00009   0.00009   2.09446
    A2        2.09435  -0.00028   0.00000  -0.00018  -0.00018   2.09416
    A3        2.09447   0.00006   0.00000   0.00010   0.00010   2.09457
    A4        2.09455  -0.00037   0.00000  -0.00021  -0.00021   2.09433
    A5        2.09406   0.00036   0.00000   0.00025   0.00025   2.09431
    A6        2.09458   0.00001   0.00000  -0.00004  -0.00004   2.09454
    A7        2.09429   0.00030   0.00000   0.00033   0.00033   2.09463
    A8        2.09462  -0.00370   0.00000  -0.00306  -0.00306   2.09155
    A9        2.09427   0.00340   0.00000   0.00273   0.00273   2.09700
   A10        2.09429  -0.00215   0.00000  -0.00144  -0.00144   2.09285
   A11        2.09407   0.02238   0.00000   0.01536   0.01536   2.10943
   A12        2.09483  -0.02023   0.00000  -0.01393  -0.01393   2.08090
   A13        2.09448   0.00176   0.00000   0.00120   0.00120   2.09567
   A14        2.09459  -0.00433   0.00000  -0.00341  -0.00341   2.09119
   A15        2.09411   0.00256   0.00000   0.00221   0.00221   2.09633
   A16        2.09440   0.00024   0.00000   0.00003   0.00003   2.09442
   A17        2.09453   0.00031   0.00000   0.00034   0.00033   2.09487
   A18        2.09426  -0.00055   0.00000  -0.00036  -0.00036   2.09389
   A19        2.09836  -0.04515   0.00000  -0.03103  -0.03103   2.06732
   A20        2.09241  -0.03519   0.00000  -0.02418  -0.02418   2.06823
   A21        2.09241   0.08033   0.00000   0.05522   0.05522   2.14763
   A22        2.09241  -0.10112   0.00000  -0.07335  -0.07335   2.01906
   A23        2.09836   0.20220   0.00000   0.14667   0.14667   2.24502
   A24        2.09241  -0.10108   0.00000  -0.07331  -0.07331   2.01910
   A25        2.09836   0.23536   0.00000   0.16177   0.16177   2.26013
   A26        2.09241  -0.11070   0.00000  -0.07609  -0.07609   2.01633
   A27        2.09241  -0.12466   0.00000  -0.08568  -0.08568   2.00673
   A28        1.91063   0.00935   0.00000   0.01070   0.01023   1.92086
   A29        1.91063  -0.01169   0.00000  -0.01404  -0.01397   1.89667
   A30        1.91063   0.00895   0.00000   0.01037   0.00989   1.92053
   A31        1.91063  -0.01693   0.00000  -0.01675  -0.01657   1.89407
   A32        1.91063   0.02682   0.00000   0.02611   0.02583   1.93646
   A33        1.91063  -0.01650   0.00000  -0.01639  -0.01621   1.89442
   A34        1.91063  -0.00592   0.00000  -0.00534  -0.00532   1.90531
   A35        1.91063   0.01347   0.00000   0.01129   0.01124   1.92188
   A36        1.91063   0.01410   0.00000   0.01171   0.01166   1.92230
   A37        1.91063  -0.00617   0.00000  -0.00545  -0.00543   1.90520
   A38        1.91063  -0.00756   0.00000  -0.00678  -0.00676   1.90387
   A39        1.91063  -0.00792   0.00000  -0.00542  -0.00554   1.90510
   A40        1.91063   0.00544   0.00000   0.00445   0.00445   1.91508
   A41        1.91063  -0.00211   0.00000  -0.00178  -0.00177   1.90886
   A42        1.91063   0.00477   0.00000   0.00393   0.00392   1.91455
   A43        1.91063  -0.00209   0.00000  -0.00178  -0.00178   1.90885
   A44        1.91063  -0.00448   0.00000  -0.00354  -0.00355   1.90708
   A45        1.91063  -0.00153   0.00000  -0.00128  -0.00128   1.90936
   A46        1.91063   0.01522   0.00000   0.01264   0.01259   1.92323
   A47        1.91063   0.01281   0.00000   0.01073   0.01068   1.92131
   A48        1.91063  -0.00606   0.00000  -0.00545  -0.00543   1.90520
   A49        1.91063  -0.00825   0.00000  -0.00571  -0.00583   1.90481
   A50        1.91063  -0.00774   0.00000  -0.00687  -0.00685   1.90378
   A51        1.91063  -0.00597   0.00000  -0.00533  -0.00531   1.90532
   A52        1.91114   0.00680   0.00000   0.00554   0.00554   1.91668
    D1        0.00056  -0.00004   0.00000  -0.00004  -0.00004   0.00052
    D2        3.14078  -0.00003   0.00000  -0.00004  -0.00004   3.14074
    D3       -3.14112   0.00000   0.00000   0.00000   0.00000  -3.14112
    D4       -0.00091   0.00000   0.00000   0.00000   0.00000  -0.00091
    D5        0.00026   0.00000   0.00000   0.00000   0.00000   0.00026
    D6        3.14140   0.00004   0.00000   0.00004   0.00004   3.14145
    D7       -3.14124  -0.00004   0.00000  -0.00004  -0.00004  -3.14128
    D8       -0.00010   0.00000   0.00000   0.00000   0.00000  -0.00010
    D9       -0.00099   0.00003   0.00000   0.00004   0.00004  -0.00095
   D10        3.14093  -0.00008   0.00000  -0.00009  -0.00009   3.14084
   D11       -3.14120   0.00003   0.00000   0.00003   0.00003  -3.14117
   D12        0.00072  -0.00008   0.00000  -0.00009  -0.00009   0.00062
   D13        0.00060   0.00001   0.00000   0.00001   0.00001   0.00060
   D14       -3.14153  -0.00002   0.00000  -0.00002  -0.00002  -3.14155
   D15       -3.14132   0.00012   0.00000   0.00013   0.00014  -3.14119
   D16       -0.00026   0.00009   0.00000   0.00011   0.00011  -0.00016
   D17        0.00023  -0.00005   0.00000  -0.00005  -0.00005   0.00018
   D18       -3.14158  -0.00003   0.00000  -0.00004  -0.00004   3.14156
   D19       -3.14083  -0.00003   0.00000  -0.00003  -0.00003  -3.14087
   D20        0.00054  -0.00002   0.00000  -0.00002  -0.00002   0.00052
   D21       -3.14159  -0.00002   0.00000  -0.00003  -0.00002   3.14157
   D22        0.00000   0.00030   0.00000   0.00036   0.00036   0.00036
   D23       -0.00053  -0.00004   0.00000  -0.00005  -0.00005  -0.00058
   D24        3.14106   0.00028   0.00000   0.00034   0.00034   3.14139
   D25       -0.00066   0.00004   0.00000   0.00005   0.00005  -0.00061
   D26        3.14138   0.00000   0.00000   0.00001   0.00001   3.14139
   D27        3.14116   0.00003   0.00000   0.00004   0.00004   3.14119
   D28        0.00001  -0.00001   0.00000  -0.00001  -0.00001   0.00001
   D29        0.00000   0.00006   0.00000   0.00009   0.00008   0.00008
   D30        3.14159   0.00055   0.00000   0.00065   0.00065  -3.14095
   D31        3.14159   0.00039   0.00000   0.00048   0.00048  -3.14111
   D32        0.00000   0.00087   0.00000   0.00104   0.00105   0.00105
   D33        0.00000   0.00115   0.00000   0.00131   0.00132   0.00132
   D34        3.14159   0.00021   0.00000   0.00020   0.00019  -3.14140
   D35        3.14159   0.00163   0.00000   0.00187   0.00189  -3.13971
   D36        0.00000   0.00069   0.00000   0.00077   0.00075   0.00075
   D37        1.04721   0.02168   0.00000   0.02202   0.02201   1.06922
   D38       -3.14158  -0.00048   0.00000  -0.00053  -0.00055   3.14105
   D39       -1.04719  -0.02237   0.00000  -0.02286  -0.02286  -1.07005
   D40       -2.09439   0.02262   0.00000   0.02313   0.02314  -2.07125
   D41        0.00001   0.00046   0.00000   0.00057   0.00058   0.00059
   D42        2.09440  -0.02143   0.00000  -0.02175  -0.02174   2.07267
   D43        1.09640  -0.00208   0.00000  -0.00244  -0.00251   1.09390
   D44       -2.04519  -0.00301   0.00000  -0.00354  -0.00347  -2.04866
   D45        1.99210  -0.01917   0.00000  -0.02083  -0.02093   1.97117
   D46       -2.19669  -0.02210   0.00000  -0.02387  -0.02400  -2.22069
   D47       -0.10230  -0.01492   0.00000  -0.01642  -0.01648  -0.11878
   D48       -0.10230  -0.00021   0.00000   0.00006   0.00004  -0.10226
   D49        1.99210  -0.00314   0.00000  -0.00297  -0.00304   1.98906
   D50       -2.19669   0.00404   0.00000   0.00447   0.00448  -2.19221
   D51       -2.19669   0.01394   0.00000   0.01440   0.01453  -2.18217
   D52       -0.10230   0.01101   0.00000   0.01137   0.01146  -0.09084
   D53        1.99210   0.01819   0.00000   0.01881   0.01897   2.01107
   D54        1.05576   0.00036   0.00000   0.00039   0.00039   1.05615
   D55       -3.13303  -0.00016   0.00000  -0.00015  -0.00015  -3.13319
   D56       -1.03864  -0.00040   0.00000  -0.00040  -0.00041  -1.03904
   D57       -3.13303  -0.00571   0.00000  -0.00536  -0.00538  -3.13841
   D58       -1.03864  -0.00624   0.00000  -0.00590  -0.00592  -1.04456
   D59        1.05576  -0.00648   0.00000  -0.00615  -0.00618   1.04958
   D60       -1.03864   0.00666   0.00000   0.00633   0.00636  -1.03228
   D61        1.05576   0.00614   0.00000   0.00579   0.00581   1.06157
   D62       -3.13303   0.00590   0.00000   0.00553   0.00555  -3.12748
   D63        0.11692   0.01508   0.00000   0.01656   0.01661   0.13354
   D64        2.21132   0.02213   0.00000   0.02387   0.02400   2.23532
   D65       -1.97747   0.01895   0.00000   0.02058   0.02067  -1.95680
   D66       -1.97747  -0.01827   0.00000  -0.01888  -0.01904  -1.99651
   D67        0.11692  -0.01122   0.00000  -0.01157  -0.01165   0.10527
   D68        2.21132  -0.01440   0.00000  -0.01486  -0.01498   2.19634
   D69        2.21132  -0.00386   0.00000  -0.00432  -0.00433   2.20699
   D70       -1.97747   0.00319   0.00000   0.00299   0.00306  -1.97442
   D71        0.11692   0.00001   0.00000  -0.00030  -0.00027   0.11665
         Item               Value     Threshold  Converged?
 Maximum Force            0.235360     0.000450     NO 
 RMS     Force            0.034457     0.000300     NO 
 Maximum Displacement     1.161448     0.001800     NO 
 RMS     Displacement     0.316545     0.001200     NO 
 Predicted change in Energy=-1.162887D-01
 GradGradGradGradGradGradGradGradGradGradGradGradGradGradGradGradGradGrad

                          Input orientation:                          
 ---------------------------------------------------------------------
 Center     Atomic      Atomic             Coordinates (Angstroms)
 Number     Number       Type             X           Y           Z
 ---------------------------------------------------------------------
      1          6           0       -5.425542    1.603524   -4.040319
      2          6           0       -4.041541    1.597872   -3.892204
      3          6           0       -3.478110    1.597112   -2.620038
      4          6           0       -4.299249    1.603161   -1.493898
      5          6           0       -5.682508    1.609227   -1.643852
      6          6           0       -6.245839    1.609045   -2.915888
      7          1           0       -5.868151    1.603673   -5.040143
      8          1           0       -3.397272    1.592726   -4.775625
      9          1           0       -2.391826    1.591958   -2.506837
     10          1           0       -6.325106    1.613937   -0.759476
     11          1           0       -7.332971    1.613625   -3.031780
     12          6           0       -3.700208    1.602504   -0.085382
     13          8           0       -4.473002    1.608075    0.885786
     14          6           0       -2.172210    1.595508    0.060700
     15          1           0       -1.619425    1.591561   -0.854069
     16          6           0       -1.425608    1.593054    1.202964
     17          6           0       -1.887625    1.594963    2.683162
     18          6           0       -2.719281    0.320600    2.982413
     19          1           0       -2.176123   -0.301804    3.668428
     20          1           0       -3.658032    0.588209    3.419105
     21          1           0       -2.895353   -0.225658    2.078067
     22          6           0       -0.640459    1.589900    3.589483
     23          1           0       -0.051721    2.466593    3.400211
     24          1           0       -0.947648    1.582659    4.617483
     25          1           0       -0.050501    0.716987    3.387774
     26          6           0       -2.709234    2.876264    2.981834
     27          1           0       -2.893866    3.416671    2.075684
     28          1           0       -3.643962    2.616547    3.431804
     29          1           0       -2.154746    3.501225    3.656466
     30          8           0       -0.017325    1.586557    1.013996
     31          1           0        0.254347    2.389181    0.558152
 ---------------------------------------------------------------------
                    Distance matrix (angstroms):
                    1          2          3          4          5
     1  C    0.000000
     2  C    1.391915   0.000000
     3  C    2.410338   1.391352   0.000000
     4  C    2.784384   2.412117   1.393735   0.000000
     5  C    2.410212   2.783521   2.410904   1.391376   0.000000
     6  C    1.391856   2.410860   2.783522   2.410664   1.391193
     7  H    1.093412   2.157383   3.401359   3.877796   3.401366
     8  H    2.157468   1.093408   2.157106   3.403439   3.876929
     9  H    3.399284   2.154259   1.092178   2.159730   3.402004
    10  H    3.401949   3.876714   3.401083   2.154899   1.093195
    11  H    2.157670   3.402071   3.876823   3.401273   2.156476
    12  C    4.314894   3.822097   2.544374   1.530611   2.521584
    13  O    5.017356   4.797441   3.644274   2.386024   2.803921
    14  C    5.234748   4.372625   2.981901   2.634602   3.902291
    15  H    4.963754   3.885479   2.563862   2.755172   4.139168
    16  C    6.594816   5.727465   4.339139   3.940937   5.121115
    17  C    7.597508   6.919162   5.536568   4.823260   5.755380
    18  C    7.634691   7.116189   5.795926   4.917176   5.643013
    19  H    8.579847   8.015716   6.696705   5.897980   6.645832
    20  H    7.732914   7.390652   6.125480   5.057557   5.547478
    21  H    6.868945   6.346900   5.072897   4.251404   4.998771
    22  C    9.006169   8.218458   6.827186   6.263201   7.267079
    23  H    9.218694   8.357789   6.981371   6.537531   7.608115
    24  H    9.747281   9.054676   7.667148   6.970124   7.850090
    25  H    9.211600   8.348798   6.972584   6.532066   7.604792
    26  C    7.636022   7.117705   5.797273   4.917430   5.642935
    27  H    6.863117   6.343569   5.069708   4.243329   4.987818
    28  H    7.748088   7.405191   6.139344   5.071380   5.561713
    29  H    8.575539   8.010316   6.691146   5.893029   6.642148
    30  O    7.402378   6.345489   5.018301   4.962327   6.257713
    31  H    7.350124   6.235903   4.965833   5.056083   6.379922
                    6          7          8          9         10
     6  C    0.000000
     7  H    2.157577   0.000000
     8  H    3.401944   2.485022   0.000000
     9  H    3.875697   4.301466   2.481596   0.000000
    10  H    2.157874   4.305000   4.970122   4.304003   0.000000
    11  H    1.093301   2.485824   4.304783   4.968998   2.485791
    12  C    3.806842   5.408293   4.700026   2.752348   2.710096
    13  O    4.194720   6.087946   5.762725   3.980131   2.477339
    14  C    5.045266   6.299098   4.989070   2.576915   4.233152
    15  H    5.065087   5.964481   4.305733   1.824348   4.706685
    16  C    6.340333   7.662420   6.295314   3.833563   5.277943
    17  C    7.095322   8.688735   7.610029   5.214434   5.616348
    18  C    6.991899   8.713384   7.890825   5.644062   5.355038
    19  H    7.972901   9.648892   8.739706   6.462720   6.363211
    20  H    6.918886   8.801970   8.260184   6.142278   5.062207
    21  H    6.287406   7.927982   7.108553   4.957682   4.816530
    22  C    8.587229  10.089569   8.807670   6.342902   7.157461
    23  H    8.887946  10.286645   8.876972   6.413602   7.575314
    24  H    9.209951  10.838889   9.707277   7.269227   7.604585
    25  H    8.883363  10.279156   8.866164   6.402641   7.574620
    26  C    6.992607   8.714950   7.892973   5.645857   5.354009
    27  H    6.278457   7.922646   7.107786   4.957935   4.802228
    28  H    6.933831   8.817416   8.274717   6.155086   5.075489
    29  H    7.969518   9.644744   8.734208   6.456610   6.360370
    30  O    7.364705   8.419326   6.704012   4.246710   6.552408
    31  H    7.411477   8.333241   6.512897   4.126979   6.754728
                   11         12         13         14         15
    11  H    0.000000
    12  C    4.677430   0.000000
    13  O    4.850440   1.241131   0.000000
    14  C    6.016412   1.534981   2.444293   0.000000
    15  H    6.114533   2.218256   3.342195   1.068826   0.000000
    16  C    7.268453   2.614140   3.063893   1.364620   2.066145
    17  C    7.893840   3.309132   3.148795   2.637859   3.547386
    18  C    7.689510   3.466534   3.021419   3.234359   4.188510
    19  H    8.669183   4.476640   4.082449   4.076212   4.934341
    20  H    7.494703   3.648561   2.849914   3.808044   4.839695
    21  H    7.013269   2.944568   2.696866   2.812357   3.678002
[...]
 Alpha virt. eigenvalues --    0.08045   0.14159   0.16229   0.23829   0.26057
 Alpha virt. eigenvalues --    0.27595   0.27977   0.28963   0.31107   0.32885
 Alpha virt. eigenvalues --    0.34030   0.34056   0.34940   0.36883   0.37185
 Alpha virt. eigenvalues --    0.37680   0.38515   0.39639   0.40153   0.40585
 Alpha virt. eigenvalues --    0.42517   0.43577   0.44295   0.45155   0.46031
 Alpha virt. eigenvalues --    0.47689   0.49589   0.50642   0.52098   0.54438
 Alpha virt. eigenvalues --    0.59224   0.62763   0.70862   0.74821   0.78541
 Alpha virt. eigenvalues --    0.83077   0.88272   0.88658   0.89836   0.91547
 Alpha virt. eigenvalues --    0.92188   0.94448   0.94870   0.95936   0.99925
 Alpha virt. eigenvalues --    1.01119   1.02222   1.02406   1.04354   1.06520
 Alpha virt. eigenvalues --    1.07449   1.08563   1.08800   1.09314   1.09717
 Alpha virt. eigenvalues --    1.10503   1.12799   1.13736   1.14242   1.15155
 Alpha virt. eigenvalues --    1.20078   1.21299   1.24613   1.25464   1.27695
 Alpha virt. eigenvalues --    1.28372   1.28428   1.30935   1.32917   1.33194
 Alpha virt. eigenvalues --    1.35620   1.36580   1.38308   1.38606   1.40051
 Alpha virt. eigenvalues --    1.40553   1.41142   1.44063   1.45101   1.46447
 Alpha virt. eigenvalues --    1.47523   1.50313   1.50850   1.52021   1.55045
 Alpha virt. eigenvalues --    1.58378   1.59550   1.63471   1.67146   1.71689
 Alpha virt. eigenvalues --    1.72904   1.77146   1.79757   1.81026   1.83229
 Alpha virt. eigenvalues --    1.85511   1.95556   1.99985   2.01991   2.06722
 Alpha virt. eigenvalues --    2.09508   2.13157   2.16434   2.20000   2.25225
 Alpha virt. eigenvalues --    2.29253   2.42045   2.47196   2.77001   2.86461
 Alpha virt. eigenvalues --    3.53687   3.82262
          Condensed to atoms (all electrons):
              1          2          3          4          5          6
     1  C    5.172276   0.473181  -0.109135  -0.004487  -0.105914   0.462786
     2  C    0.473181   5.169380   0.477981  -0.106775  -0.005399  -0.112218
     3  C   -0.109135   0.477981   5.179161   0.425682  -0.088074  -0.003999
     4  C   -0.004487  -0.106775   0.425682   5.743387   0.410203  -0.108865
     5  C   -0.105914  -0.005399  -0.088074   0.410203   5.221407   0.438373
     6  C    0.462786  -0.112218  -0.003999  -0.108865   0.438373   5.215682
     7  H    0.397771  -0.032287   0.002570  -0.000189   0.002537  -0.031629
     8  H   -0.031874   0.400120  -0.034148   0.002657  -0.000116   0.002329
     9  H    0.002308  -0.028834   0.396283  -0.033626   0.002194  -0.000087
    10  H    0.001931   0.000003   0.001535  -0.039149   0.391044  -0.023773
    11  H   -0.032460   0.002319  -0.000111   0.002787  -0.033211   0.399872
    12  C   -0.000209   0.001446  -0.018767   0.165927  -0.065783   0.004556
    13  O   -0.000007  -0.000003   0.002282  -0.114730   0.006845   0.000552
    14  C   -0.000029   0.000128  -0.005669  -0.169954   0.007435   0.000046
    15  H    0.000003   0.000053   0.001184  -0.000887  -0.000117  -0.000012
    16  C    0.000000  -0.000001  -0.000145   0.003277  -0.000021   0.000000
    17  C    0.000000   0.000000  -0.000003   0.000050   0.000000   0.000000
    18  C    0.000000   0.000000   0.000004  -0.000211   0.000004   0.000000
    19  H    0.000000   0.000000   0.000000   0.000007   0.000000   0.000000
    20  H    0.000000   0.000000   0.000000   0.000001   0.000000   0.000000
    21  H    0.000000   0.000000  -0.000020   0.000505  -0.000023   0.000000
    22  C    0.000000   0.000000   0.000000   0.000001   0.000000   0.000000
    23  H    0.000000   0.000000   0.000000   0.000000   0.000000   0.000000
    24  H    0.000000   0.000000   0.000000   0.000000   0.000000   0.000000
    25  H    0.000000   0.000000   0.000000   0.000000   0.000000   0.000000
    26  C    0.000000   0.000000   0.000001  -0.000106   0.000002   0.000000
    27  H    0.000000   0.000000  -0.000004   0.000370  -0.000014   0.000000
    28  H    0.000000   0.000000   0.000000   0.000000   0.000000   0.000000
    29  H    0.000000   0.000000   0.000000   0.000002   0.000000   0.000000
    30  O    0.000000   0.000000   0.000004  -0.000025   0.000000   0.000000
    31  H    0.000000   0.000000  -0.000005  -0.000008   0.000000   0.000000
              7          8          9         10         11         12
     1  C    0.397771  -0.031874   0.002308   0.001931  -0.032460  -0.000209
     2  C   -0.032287   0.400120  -0.028834   0.000003   0.002319   0.001446
     3  C    0.002570  -0.034148   0.396283   0.001535  -0.000111  -0.018767
     4  C   -0.000189   0.002657  -0.033626  -0.039149   0.002787   0.165927
     5  C    0.002537  -0.000116   0.002194   0.391044  -0.033211  -0.065783
     6  C   -0.031629   0.002329  -0.000087  -0.023773   0.399872   0.004556
     7  H    0.416977  -0.001369  -0.000035  -0.000030  -0.001340   0.000000
     8  H   -0.001369   0.420447  -0.001399   0.000002  -0.000035  -0.000033
     9  H   -0.000035  -0.001399   0.416399  -0.000038   0.000001  -0.001080
    10  H   -0.000030   0.000002  -0.000038   0.375097  -0.001217   0.000110
    11  H   -0.001340  -0.000035   0.000001  -0.001217   0.417270  -0.000039
    12  C    0.000000  -0.000033  -0.001080   0.000110  -0.000039   4.709014
    13  O    0.000000   0.000000  -0.000004   0.009689   0.000001   0.567110
    14  C    0.000000   0.000005   0.000571   0.000540   0.000000   0.142765
    15  H    0.000000  -0.000003   0.002210  -0.000010   0.000000  -0.020958
    16  C    0.000000   0.000000  -0.000016  -0.000002   0.000000  -0.061529
    17  C    0.000000   0.000000  -0.000001   0.000000   0.000000   0.000735
    18  C    0.000000   0.000000  -0.000001   0.000000   0.000000  -0.004516
    19  H    0.000000   0.000000   0.000000   0.000000   0.000000   0.000170
    20  H    0.000000   0.000000   0.000000   0.000000   0.000000   0.000091
    21  H    0.000000   0.000000   0.000000   0.000002   0.000000   0.001144
    22  C    0.000000   0.000000   0.000000   0.000000   0.000000  -0.000057
    23  H    0.000000   0.000000   0.000000   0.000000   0.000000  -0.000002
    24  H    0.000000   0.000000   0.000000   0.000000   0.000000   0.000000
    25  H    0.000000   0.000000   0.000000   0.000000   0.000000  -0.000001
    26  C    0.000000   0.000000   0.000000   0.000000   0.000000  -0.002208
    27  H    0.000000   0.000000   0.000000   0.000007   0.000000   0.000312
    28  H    0.000000   0.000000   0.000000   0.000000   0.000000   0.000053
    29  H    0.000000   0.000000   0.000000   0.000000   0.000000   0.000045
    30  O    0.000000   0.000000  -0.000006   0.000000   0.000000   0.002556
    31  H    0.000000   0.000000  -0.000006   0.000000   0.000000   0.000454
             13         14         15         16         17         18
     1  C   -0.000007  -0.000029   0.000003   0.000000   0.000000   0.000000
     2  C   -0.000003   0.000128   0.000053  -0.000001   0.000000   0.000000
     3  C    0.002282  -0.005669   0.001184  -0.000145  -0.000003   0.000004
     4  C   -0.114730  -0.169954  -0.000887   0.003277   0.000050  -0.000211
     5  C    0.006845   0.007435  -0.000117  -0.000021   0.000000   0.000004
     6  C    0.000552   0.000046  -0.000012   0.000000   0.000000   0.000000
     7  H    0.000000   0.000000   0.000000   0.000000   0.000000   0.000000
     8  H    0.000000   0.000005  -0.000003   0.000000   0.000000   0.000000
     9  H   -0.000004   0.000571   0.002210  -0.000016  -0.000001  -0.000001
    10  H    0.009689   0.000540  -0.000010  -0.000002   0.000000   0.000000
    11  H    0.000001   0.000000   0.000000   0.000000   0.000000   0.000000
    12  C    0.567110   0.142765  -0.020958  -0.061529   0.000735  -0.004516
    13  O    8.242154  -0.114293   0.001510  -0.001538   0.001706  -0.009822
    14  C   -0.114293   5.871668   0.395800   0.426118  -0.075018   0.005303
    15  H    0.001510   0.395800   0.466136  -0.060643   0.001630   0.000059
    16  C   -0.001538   0.426118  -0.060643   4.936733   0.184987  -0.086599
    17  C    0.001706  -0.075018   0.001630   0.184987   5.935995   0.257875
    18  C   -0.009822   0.005303   0.000059  -0.086599   0.257875   5.415703
    19  H    0.000059   0.000134  -0.000009  -0.001854  -0.047152   0.377658
    20  H    0.000042  -0.000020   0.000000   0.004792  -0.046867   0.377995
    21  H    0.021891  -0.002968   0.000000  -0.000314  -0.039075   0.361209
    22  C    0.000012   0.002108  -0.000042  -0.087401   0.257461  -0.085445
    23  H    0.000000   0.000045   0.000001  -0.001566  -0.042379   0.003461
    24  H    0.000000   0.000007   0.000000   0.005403  -0.048421  -0.002392
    25  H    0.000000  -0.000009   0.000000  -0.001729  -0.043623  -0.000272
    26  C   -0.010460   0.004066   0.000021  -0.093607   0.255775  -0.067898
    27  H    0.025545  -0.002597  -0.000010  -0.001019  -0.040279  -0.001708
    28  H    0.000066  -0.000028   0.000000   0.004948  -0.046621  -0.001818
    29  H    0.000075  -0.000012  -0.000003  -0.001821  -0.046818   0.003344
    30  O    0.000000  -0.065977  -0.005583   0.270713  -0.057801   0.000975
    31  H    0.000000   0.006673   0.004474  -0.053357   0.005328  -0.000173
             19         20         21         22         23         24
     1  C    0.000000   0.000000   0.000000   0.000000   0.000000   0.000000
     2  C    0.000000   0.000000   0.000000   0.000000   0.000000   0.000000
     3  C    0.000000   0.000000  -0.000020   0.000000   0.000000   0.000000
     4  C    0.000007   0.000001   0.000505   0.000001   0.000000   0.000000
     5  C    0.000000   0.000000  -0.000023   0.000000   0.000000   0.000000
     6  C    0.000000   0.000000   0.000000   0.000000   0.000000   0.000000
     7  H    0.000000   0.000000   0.000000   0.000000   0.000000   0.000000
     8  H    0.000000   0.000000   0.000000   0.000000   0.000000   0.000000
     9  H    0.000000   0.000000   0.000000   0.000000   0.000000   0.000000
    10  H    0.000000   0.000000   0.000002   0.000000   0.000000   0.000000
    11  H    0.000000   0.000000   0.000000   0.000000   0.000000   0.000000
    12  C    0.000170   0.000091   0.001144  -0.000057  -0.000002   0.000000
    13  O    0.000059   0.000042   0.021891   0.000012   0.000000   0.000000
    14  C    0.000134  -0.000020  -0.002968   0.002108   0.000045   0.000007
    15  H   -0.000009   0.000000   0.000000  -0.000042   0.000001   0.000000
    16  C   -0.001854   0.004792  -0.000314  -0.087401  -0.001566   0.005403
    17  C   -0.047152  -0.046867  -0.039075   0.257461  -0.042379  -0.048421
    18  C    0.377658   0.377995   0.361209  -0.085445   0.003461  -0.002392
    19  H    0.519727  -0.025992  -0.020871  -0.000379  -0.000048  -0.000034
    20  H   -0.025992   0.511725  -0.021743  -0.002023   0.000002   0.001911
    21  H   -0.020871  -0.021743   0.441444   0.003038  -0.000052   0.000001
    22  C   -0.000379  -0.002023   0.003038   5.337623   0.382512   0.375438
    23  H   -0.000048   0.000002  -0.000052   0.382512   0.488458  -0.025433
    24  H   -0.000034   0.001911   0.000001   0.375438  -0.025433   0.528680
    25  H    0.001818  -0.000049  -0.000028   0.382696  -0.023485  -0.025941
    26  C    0.003328  -0.001439  -0.002117  -0.083214  -0.000521  -0.002061
    27  H   -0.000004   0.000142   0.001138   0.002988  -0.000015  -0.000014
    28  H   -0.000025   0.001507   0.000211  -0.001470  -0.000079   0.001832
    29  H   -0.000059  -0.000029  -0.000002  -0.000558   0.001910  -0.000029
    30  O    0.000066  -0.000020  -0.000002   0.000266   0.003046   0.000337
    31  H   -0.000007   0.000002   0.000002  -0.000175  -0.000108  -0.000004
             25         26         27         28         29         30
     1  C    0.000000   0.000000   0.000000   0.000000   0.000000   0.000000
     2  C    0.000000   0.000000   0.000000   0.000000   0.000000   0.000000
     3  C    0.000000   0.000001  -0.000004   0.000000   0.000000   0.000004
     4  C    0.000000  -0.000106   0.000370   0.000000   0.000002  -0.000025
     5  C    0.000000   0.000002  -0.000014   0.000000   0.000000   0.000000
     6  C    0.000000   0.000000   0.000000   0.000000   0.000000   0.000000
     7  H    0.000000   0.000000   0.000000   0.000000   0.000000   0.000000
     8  H    0.000000   0.000000   0.000000   0.000000   0.000000   0.000000
     9  H    0.000000   0.000000   0.000000   0.000000   0.000000  -0.000006
    10  H    0.000000   0.000000   0.000007   0.000000   0.000000   0.000000
    11  H    0.000000   0.000000   0.000000   0.000000   0.000000   0.000000
    12  C   -0.000001  -0.002208   0.000312   0.000053   0.000045   0.002556
    13  O    0.000000  -0.010460   0.025545   0.000066   0.000075   0.000000
    14  C   -0.000009   0.004066  -0.002597  -0.000028  -0.000012  -0.065977
    15  H    0.000000   0.000021  -0.000010   0.000000  -0.000003  -0.005583
    16  C   -0.001729  -0.093607  -0.001019   0.004948  -0.001821   0.270713
    17  C   -0.043623   0.255775  -0.040279  -0.046621  -0.046818  -0.057801
    18  C   -0.000272  -0.067898  -0.001708  -0.001818   0.003344   0.000975
    19  H    0.001818   0.003328  -0.000004  -0.000025  -0.000059   0.000066
    20  H   -0.000049  -0.001439   0.000142   0.001507  -0.000029  -0.000020
    21  H   -0.000028  -0.002117   0.001138   0.000211  -0.000002  -0.000002
    22  C    0.382696  -0.083214   0.002988  -0.001470  -0.000558   0.000266
    23  H   -0.023485  -0.000521  -0.000015  -0.000079   0.001910   0.003046
    24  H   -0.025941  -0.002061  -0.000014   0.001832  -0.000029   0.000337
    25  H    0.500497   0.003480  -0.000052  -0.000010  -0.000049   0.001550
    26  C    0.003480   5.425282   0.357151   0.377872   0.376418   0.000766
    27  H   -0.000052   0.357151   0.434048  -0.020070  -0.019932   0.000001
    28  H   -0.000010   0.377872  -0.020070   0.511067  -0.026158  -0.000026
    29  H   -0.000049   0.376418  -0.019932  -0.026158   0.519936   0.000365
    30  O    0.001550   0.000766   0.000001  -0.000026   0.000365   8.289835
    31  H   -0.000088  -0.000226   0.000002   0.000003  -0.000021   0.275094
             31
     1  C    0.000000
     2  C    0.000000
     3  C   -0.000005
     4  C   -0.000008
     5  C    0.000000
     6  C    0.000000
     7  H    0.000000
     8  H    0.000000
     9  H   -0.000006
    10  H    0.000000
    11  H    0.000000
    12  C    0.000454
    13  O    0.000000
    14  C    0.006673
    15  H    0.004474
    16  C   -0.053357
    17  C    0.005328
    18  C   -0.000173
    19  H   -0.000007
    20  H    0.000002
    21  H    0.000002
    22  C   -0.000175
    23  H   -0.000108
    24  H   -0.000004
    25  H   -0.000088
    26  C   -0.000226
    27  H    0.000002
    28  H    0.000003
    29  H   -0.000021
    30  O    0.275094
    31  H    0.356517
 Mulliken atomic charges:
              1
     1  C   -0.226141
     2  C   -0.239096
     3  C   -0.226609
     4  C   -0.175844
     5  C   -0.181375
     6  C   -0.243613
     7  H    0.247023
     8  H    0.243416
     9  H    0.245167
    10  H    0.284262
    11  H    0.246162
    12  C    0.578696
    13  O   -0.628683
    14  C   -0.426837
    15  H    0.215194
    16  C    0.616188
    17  C   -0.367484
    18  C   -0.542734
    19  H    0.193466
    20  H    0.199971
    21  H    0.256632
    22  C   -0.483378
    23  H    0.214254
    24  H    0.190720
    25  H    0.205295
    26  C   -0.540304
    27  H    0.264015
    28  H    0.198745
    29  H    0.193397
    30  O   -0.716134
    31  H    0.405629
 Sum of Mulliken atomic charges =   0.00000
 Mulliken charges with hydrogens summed into heavy atoms:
              1
     1  C    0.020883
     2  C    0.004321
     3  C    0.018558
     4  C   -0.175844
     5  C    0.102887
     6  C    0.002549
    12  C    0.578696
    13  O   -0.628683
    14  C   -0.211644
    16  C    0.616188
    17  C   -0.367484
    18  C    0.107335
    22  C    0.126890
    26  C    0.115853
    30  O   -0.310505
 Sum of Mulliken charges with hydrogens summed into heavy atoms =   0.00000
 Electronic spatial extent (au):  <R**2>=           4198.0347
 Charge=              0.0000 electrons
 Dipole moment (field-independent basis, Debye):
    X=              1.4221    Y=              3.0069    Z=             -0.3488  Tot=              3.3445
 Quadrupole moment (field-independent basis, Debye-Ang):
   XX=            -83.1489   YY=            -85.6786   ZZ=            -94.6393
   XY=              1.7093   XZ=             -0.1326   YZ=             -0.0602
 Traceless Quadrupole moment (field-independent basis, Debye-Ang):
   XX=              4.6734   YY=              2.1437   ZZ=             -6.8170
   XY=              1.7093   XZ=             -0.1326   YZ=             -0.0602
 Octapole moment (field-independent basis, Debye-Ang**2):
  XXX=             54.8983  YYY=             31.0534  ZZZ=             -3.7568  XYY=              7.6446
  XXY=            -15.8719  XXZ=              3.4165  XZZ=            -19.6122  YZZ=              2.6109
  YYZ=             -6.4426  XYZ=              9.5289
 Hexadecapole moment (field-independent basis, Debye-Ang**3):
 XXXX=          -4351.5240 YYYY=           -680.0548 ZZZZ=           -310.9689 XXXY=             32.6986
 XXXZ=              5.9322 YYYX=            -35.9803 YYYZ=            -15.5873 ZZZX=              6.9619
 ZZZY=             -6.9668 XXYY=           -863.6002 XXZZ=           -886.7495 YYZZ=           -173.3953
 XXYZ=             25.0474 YYXZ=              7.9956 ZZXY=            -14.6555
 N-N= 9.633554935149D+02 E-N=-3.439387777816D+03  KE= 6.464639011956D+02
 1|1|UNPC-DESKTOP-K2VF0AK|FOpt|RHF|3-21G|C13H16O2|MELIH|22-Nov-2024|0||
 # opt hf/3-21g geom=connectivity||Title Card Required||0,1|C,-5.304165
 3593,1.4214152594,-4.0242378392|C,-3.9622410395,1.1546375957,-3.821404
 9355|C,-3.4139680381,1.2761428177,-2.5565061739|C,-4.2048664838,1.6605
 061669,-1.4834683234|C,-5.5559480751,1.9046430205,-1.6934411739|C,-6.1
 023984072,1.7954964239,-2.9558233793|H,-5.7260336591,1.3324710403,-5.0
 056995326|H,-3.3446843852,0.848621011,-4.6421202682|H,-2.3790995524,1.
 0430845654,-2.4145379988|H,-6.1597111919,2.1774029506,-0.8536009351|H,
 -7.1441522438,1.9961106674,-3.1070303911|C,-3.7045678112,1.7963484675,
 -0.0723789472|O,-4.5312917719,1.8157902056,0.8338121301|C,-2.268162087
 4,1.9376449444,0.1065024169|H,-1.7312399373,2.1556110755,-0.7954909255
 |C,-1.5319385741,1.8997504888,1.2267311889|C,-1.931274592,1.6103914276
 ,2.673498481|C,-2.7120260686,0.2807330478,2.7603717654|H,-2.1090200817
 ,-0.5382756484,2.3836471499|H,-2.9416419507,0.0809209295,3.8012655009|
 H,-3.636183998,0.3361706711,2.2114810938|C,-0.6734315516,1.4938332478,
 3.558895953|H,-0.1041407056,2.4117333185,3.5579335434|H,-0.9911318905,
 1.2804660929,4.5731185537|H,-0.0285040413,0.6928300393,3.2226363493|C,
 -2.7952281599,2.7842969202,3.1928309458|H,-3.701157213,2.8655842563,2.
 6160834454|H,-3.0511270708,2.5989237716,4.2305814768|H,-2.2391321317,3
 .7142101375,3.141108942|O,-0.1909491301,2.1472303309,1.1314285709|H,0.
 0993197328,2.3707302566,0.2378122365||Version=IA32W-G09RevA.02|State=1
 -A|HF=-647.7002987|RMSD=5.475e-009|RMSF=3.750e-006|Dipole=0.7360025,0.
 0698256,-1.0885016|Quadrupole=0.9634346,-5.0554379,4.0920033,-0.151441
 1,0.2179777,0.3021034|PG=C01 [X(C13H16O2)]||@


 Just remember, when you're over the hill, you begin to pick up speed.
 -- Charles Schulz
 Job cpu time:  0 days  0 hours  7 minutes 28.0 seconds.
 File lengths (MBytes):  RWF=     23 Int=      0 D2E=      0 Chk=      3 Scr=      1
 Normal termination of Gaussian 09 at Fri Nov 22 16:25:05 2024.
