 Entering Link 1 = C:\G09W\l1.exe PID=       816.
  
 Copyright (c) 1988,1990,1992,1993,1995,1998,2003,2009, Gaussian, Inc.
                  All Rights Reserved.
  
 This is part of the Gaussian(R) 09 program.  It is based on
 the Gaussian(R) 03 system (copyright 2003, Gaussian, Inc.),
 the Gaussian(R) 98 system (copyright 1998, Gaussian, Inc.),
 the Gaussian(R) 94 system (copyright 1995, Gaussian, Inc.),
 the Gaussian 92(TM) system (copyright 1992, Gaussian, Inc.),
 the Gaussian 90(TM) system (copyright 1990, Gaussian, Inc.),
 the Gaussian 88(TM) system (copyright 1988, Gaussian, Inc.),
 the Gaussian 86(TM) system (copyright 1986, Carnegie Mellon
 University), and the Gaussian 82(TM) system (copyright 1983,
 Carnegie Mellon University). Gaussian is a federally registered
 trademark of Gaussian, Inc.
  
 This software contains proprietary and confidential information,
 including trade secrets, belonging to Gaussian, Inc.
  
 This software is provided under written license and may be
 used, copied, transmitted, or stored only in accord with that
 written license.
  
 The following legend is applicable only to US Government
 contracts under FAR:
  
                    RESTRICTED RIGHTS LEGEND
  
 Use, reproduction and disclosure by the US Government is
 subject to restrictions as set forth in subparagraphs (a)
 and (c) of the Commercial Computer Software - Restricted
 Rights clause in FAR 52.227-19.
  
 Gaussian, Inc.
 340 Quinnipiac St., Bldg. 40, Wallingford CT 06492
  
  
 ---------------------------------------------------------------
 Warning -- This program may not be used in any manner that
 competes with the business of Gaussian, Inc. or will provide
 assistance to any competitor of Gaussian, Inc.  The licensee
 of this program is prohibited from giving any competitor of
 Gaussian, Inc. access to this program.  By using this program,
 the user acknowledges that Gaussian, Inc. is engaged in the
 business of creating and licensing software in the field of
 computational chemistry and represents and warrants to the
 licensee that it is not a competitor of Gaussian, Inc. and that
 it will not use this program in any manner prohibited above.
 ---------------------------------------------------------------
  

 Cite this work as:
 Gaussian 09, Revision A.02,
 M. J. Frisch, G. W. Trucks, H. B. Schlegel, G. E. Scuseria, 
 M. A. Robb, J. R. Cheeseman, G. Scalmani, V. Barone, B. Mennucci, 
 G. A. Petersson, H. Nakatsuji, M. Caricato, X. Li, H. P. Hratchian, 
 A. F. Izmaylov, J. Bloino, G. Zheng, J. L. Sonnenberg, M. Hada, 
 M. Ehara, K. Toyota, R. Fukuda, J. Hasegawa, M. Ishida, T. Nakajima, 
 Y. Honda, O. Kitao, H. Nakai, T. Vreven, J. A. Montgomery, Jr., 
 J. E. Peralta, F. Ogliaro, M. Bearpark, J. J. Heyd, E. Brothers, 
 K. N. Kudin, V. N. Staroverov, R. Kobayashi, J. Normand, 
 K. Raghavachari, A. Rendell, J. C. Burant, S. S. Iyengar, J. Tomasi, 
 M. Cossi, N. Rega, J. M. Millam, M. Klene, J. E. Knox, J. B. Cross, 
 V. Bakken, C. Adamo, J. Jaramillo, R. Gomperts, R. E. Stratmann, 
 O. Yazyev, A. J. Austin, R. Cammi, C. Pomelli, J. W. Ochterski, 
 R. L. Martin, K. Morokuma, V. G. Zakrzewski, G. A. Voth, 
 P. Salvador, J. J. Dannenberg, S. Dapprich, A. D. Daniels, 
 O. Farkas, J. B. Foresman, J. V. Ortiz, J. Cioslowski, 
 and D. J. Fox, Gaussian, Inc., Wallingford CT, 2009.
 
 ******************************************
 Gaussian 09:  IA32W-G09RevA.02 11-Jun-2009
                27-Nov-2024 
 ******************************************
 %chk=C:\G09W\Midterm1\K1opt.chk
 ---------------------------------
 # opt hf/6-311g geom=connectivity
 ---------------------------------
 1/18=20,19=15,38=1,57=2/1,3;
 2/9=110,12=2,17=6,18=5,40=1/2;
 3/5=4,6=6,11=9,16=1,25=1,30=1,71=1/1,2,3;
 4//1;
 5/5=2,38=5/2;
 6/7=2,8=2,9=2,10=2,28=1/1;
 7//1,2,3,16;
 1/18=20,19=15/3(2);
 2/9=110/2;
 99//99;
 2/9=110/2;
 3/5=4,6=6,11=9,16=1,25=1,30=1,71=1/1,2,3;
 4/5=5,16=3/1;
 5/5=2,38=5/2;
 7//1,2,3,16;
 1/18=20,19=15/3(-5);
 2/9=110/2;
 6/7=2,8=2,9=2,10=2,19=2,28=1/1;
 99/9=1/99;
 -------------------
 Title Card Required
 -------------------
 Symbolic Z-matrix:
 Charge =  0 Multiplicity = 1
 C                    -5.37632  -2.32769   0.00168 
 C                    -3.98116  -2.32769   0.00168 
 C                    -3.28363  -1.11994   0.00168 
 C                    -3.98128   0.08857   0.00048 
 C                    -5.37611   0.0885    0. 
 C                    -6.07371  -1.11971   0.001 
 H                    -5.92608  -3.28      0.00213 
 H                    -3.43166  -3.2802    0.00299 
 H                    -3.43108   1.04072   0.00042 
 H                    -5.92623   1.04078  -0.00095 
 H                    -7.17331  -1.11953   0.00082 
 C                    -1.74363  -1.11982   0.00257 
 O                    -1.11019  -0.03247   0.00257 
 C                    -0.97617  -2.45497   0.00345 
 H                    -1.23613  -3.0152    0.87721 
 H                    -1.23534  -3.01591  -0.87009 
 C                     0.53843  -2.17646   0.00402 
 O                     0.96485  -0.99251   0.00374 
 C                     1.53461  -3.35086   0.00495 
 C                     2.97391  -2.80312   0.0054 
 H                     3.12744  -2.2045    0.87889 
 H                     3.66606  -3.61911   0.00605 
 H                     3.12826  -2.20519  -0.86841 
 C                     1.31246  -4.21144   1.26259 
 H                     0.43569  -4.81114   1.13409 
 H                     2.16     -4.8467    1.41434 
 H                     1.18736  -3.57441   2.11314 
 C                     1.31364  -4.21242  -1.25222 
 H                     1.24085  -3.57824  -2.11095 
 H                     2.13767  -4.88408  -1.37367 
 H                     0.40885  -4.77357  -1.14553 
 

 GradGradGradGradGradGradGradGradGradGradGradGradGradGradGradGradGradGrad
 Berny optimization.
 Initialization pass.
                           ----------------------------
                           !    Initial Parameters    !
                           ! (Angstroms and Degrees)  !
 --------------------------                            --------------------------
 ! Name  Definition              Value          Derivative Info.                !
 --------------------------------------------------------------------------------
 ! R1    R(1,2)                  1.3952         estimate D2E/DX2                !
 ! R2    R(1,6)                  1.3948         estimate D2E/DX2                !
 ! R3    R(1,7)                  1.0996         estimate D2E/DX2                !
 ! R4    R(2,3)                  1.3947         estimate D2E/DX2                !
 ! R5    R(2,8)                  1.0997         estimate D2E/DX2                !
 ! R6    R(3,4)                  1.3954         estimate D2E/DX2                !
 ! R7    R(3,12)                 1.54           estimate D2E/DX2                !
 ! R8    R(4,5)                  1.3948         estimate D2E/DX2                !
 ! R9    R(4,9)                  1.0997         estimate D2E/DX2                !
 ! R10   R(5,6)                  1.3951         estimate D2E/DX2                !
 ! R11   R(5,10)                 1.0998         estimate D2E/DX2                !
 ! R12   R(6,11)                 1.0996         estimate D2E/DX2                !
 ! R13   R(12,13)                1.2584         estimate D2E/DX2                !
 ! R14   R(12,14)                1.54           estimate D2E/DX2                !
 ! R15   R(14,15)                1.07           estimate D2E/DX2                !
 ! R16   R(14,16)                1.07           estimate D2E/DX2                !
 ! R17   R(14,17)                1.54           estimate D2E/DX2                !
 ! R18   R(17,18)                1.2584         estimate D2E/DX2                !
 ! R19   R(17,19)                1.54           estimate D2E/DX2                !
 ! R20   R(19,20)                1.54           estimate D2E/DX2                !
 ! R21   R(19,24)                1.54           estimate D2E/DX2                !
 ! R22   R(19,28)                1.54           estimate D2E/DX2                !
 ! R23   R(20,21)                1.07           estimate D2E/DX2                !
 ! R24   R(20,22)                1.07           estimate D2E/DX2                !
 ! R25   R(20,23)                1.07           estimate D2E/DX2                !
 ! R26   R(24,25)                1.07           estimate D2E/DX2                !
 ! R27   R(24,26)                1.07           estimate D2E/DX2                !
 ! R28   R(24,27)                1.07           estimate D2E/DX2                !
 ! R29   R(28,29)                1.07           estimate D2E/DX2                !
 ! R30   R(28,30)                1.07           estimate D2E/DX2                !
 ! R31   R(28,31)                1.07           estimate D2E/DX2                !
 ! A1    A(2,1,6)              119.9985         estimate D2E/DX2                !
 ! A2    A(2,1,7)              119.9972         estimate D2E/DX2                !
 ! A3    A(6,1,7)              120.0043         estimate D2E/DX2                !
 ! A4    A(1,2,3)              120.0086         estimate D2E/DX2                !
 ! A5    A(1,2,8)              119.9808         estimate D2E/DX2                !
 ! A6    A(3,2,8)              120.0106         estimate D2E/DX2                !
 ! A7    A(2,3,4)              119.9942         estimate D2E/DX2                !
 ! A8    A(2,3,12)             120.0128         estimate D2E/DX2                !
 ! A9    A(4,3,12)             119.993          estimate D2E/DX2                !
 ! A10   A(3,4,5)              119.994          estimate D2E/DX2                !
 ! A11   A(3,4,9)              119.9811         estimate D2E/DX2                !
 ! A12   A(5,4,9)              120.0249         estimate D2E/DX2                !
 ! A13   A(4,5,6)              120.0047         estimate D2E/DX2                !
 ! A14   A(4,5,10)             120.0113         estimate D2E/DX2                !
 ! A15   A(6,5,10)             119.984          estimate D2E/DX2                !
 ! A16   A(1,6,5)              120.0            estimate D2E/DX2                !
 ! A17   A(1,6,11)             120.008          estimate D2E/DX2                !
 ! A18   A(5,6,11)             119.992          estimate D2E/DX2                !
 ! A19   A(3,12,13)            120.2269         estimate D2E/DX2                !
 ! A20   A(3,12,14)            119.8865         estimate D2E/DX2                !
 ! A21   A(13,12,14)           119.8865         estimate D2E/DX2                !
 ! A22   A(12,14,15)           109.4712         estimate D2E/DX2                !
 ! A23   A(12,14,16)           109.4712         estimate D2E/DX2                !
 ! A24   A(12,14,17)           109.4712         estimate D2E/DX2                !
 ! A25   A(15,14,16)           109.4713         estimate D2E/DX2                !
 ! A26   A(15,14,17)           109.4712         estimate D2E/DX2                !
 ! A27   A(16,14,17)           109.4712         estimate D2E/DX2                !
 ! A28   A(14,17,18)           120.2269         estimate D2E/DX2                !
 ! A29   A(14,17,19)           119.8865         estimate D2E/DX2                !
 ! A30   A(18,17,19)           119.8865         estimate D2E/DX2                !
 ! A31   A(17,19,20)           109.4712         estimate D2E/DX2                !
 ! A32   A(17,19,24)           109.4712         estimate D2E/DX2                !
 ! A33   A(17,19,28)           109.4712         estimate D2E/DX2                !
 ! A34   A(20,19,24)           109.4712         estimate D2E/DX2                !
 ! A35   A(20,19,28)           109.4712         estimate D2E/DX2                !
 ! A36   A(24,19,28)           109.4713         estimate D2E/DX2                !
 ! A37   A(19,20,21)           109.4712         estimate D2E/DX2                !
 ! A38   A(19,20,22)           109.4712         estimate D2E/DX2                !
 ! A39   A(19,20,23)           109.4712         estimate D2E/DX2                !
 ! A40   A(21,20,22)           109.4713         estimate D2E/DX2                !
 ! A41   A(21,20,23)           109.4712         estimate D2E/DX2                !
 ! A42   A(22,20,23)           109.4712         estimate D2E/DX2                !
 ! A43   A(19,24,25)           109.4712         estimate D2E/DX2                !
 ! A44   A(19,24,26)           109.4712         estimate D2E/DX2                !
 ! A45   A(19,24,27)           109.4712         estimate D2E/DX2                !
 ! A46   A(25,24,26)           109.4713         estimate D2E/DX2                !
 ! A47   A(25,24,27)           109.4712         estimate D2E/DX2                !
 ! A48   A(26,24,27)           109.4712         estimate D2E/DX2                !
 ! A49   A(19,28,29)           109.4712         estimate D2E/DX2                !
 ! A50   A(19,28,30)           109.4712         estimate D2E/DX2                !
 ! A51   A(19,28,31)           109.4712         estimate D2E/DX2                !
 ! A52   A(29,28,30)           109.4713         estimate D2E/DX2                !
 ! A53   A(29,28,31)           109.4712         estimate D2E/DX2                !
 ! A54   A(30,28,31)           109.4712         estimate D2E/DX2                !
 ! D1    D(6,1,2,3)              0.0323         estimate D2E/DX2                !
 ! D2    D(6,1,2,8)            179.9532         estimate D2E/DX2                !
 ! D3    D(7,1,2,3)           -179.9729         estimate D2E/DX2                !
 ! D4    D(7,1,2,8)             -0.052          estimate D2E/DX2                !
 ! D5    D(2,1,6,5)              0.0149         estimate D2E/DX2                !
 ! D6    D(2,1,6,11)           179.9892         estimate D2E/DX2                !
 ! D7    D(7,1,6,5)           -179.9798         estimate D2E/DX2                !
 ! D8    D(7,1,6,11)            -0.0056         estimate D2E/DX2                !
 ! D9    D(1,2,3,4)             -0.0568         estimate D2E/DX2                !
 ! D10   D(1,2,3,12)           179.9619         estimate D2E/DX2                !
 ! D11   D(8,2,3,4)           -179.9777         estimate D2E/DX2                !
 ! D12   D(8,2,3,12)             0.041          estimate D2E/DX2                !
 ! D13   D(2,3,4,5)              0.0341         estimate D2E/DX2                !
 ! D14   D(2,3,4,9)           -179.9964         estimate D2E/DX2                !
 ! D15   D(12,3,4,5)          -179.9846         estimate D2E/DX2                !
 ! D16   D(12,3,4,9)            -0.0151         estimate D2E/DX2                !
 ! D17   D(2,3,12,13)          180.0            estimate D2E/DX2                !
 ! D18   D(2,3,12,14)            0.0            estimate D2E/DX2                !
 ! D19   D(4,3,12,13)            0.0187         estimate D2E/DX2                !
 ! D20   D(4,3,12,14)         -179.9813         estimate D2E/DX2                !
 ! D21   D(3,4,5,6)              0.0131         estimate D2E/DX2                !
 ! D22   D(3,4,5,10)          -179.9995         estimate D2E/DX2                !
 ! D23   D(9,4,5,6)           -179.9563         estimate D2E/DX2                !
 ! D24   D(9,4,5,10)             0.0311         estimate D2E/DX2                !
 ! D25   D(4,5,6,1)             -0.0376         estimate D2E/DX2                !
 ! D26   D(4,5,6,11)           179.9881         estimate D2E/DX2                !
 ! D27   D(10,5,6,1)           179.975          estimate D2E/DX2                !
 ! D28   D(10,5,6,11)            0.0007         estimate D2E/DX2                !
 ! D29   D(3,12,14,15)         -60.0083         estimate D2E/DX2                !
 ! D30   D(3,12,14,16)          59.9917         estimate D2E/DX2                !
 ! D31   D(3,12,14,17)         179.9917         estimate D2E/DX2                !
 ! D32   D(13,12,14,15)        119.9917         estimate D2E/DX2                !
 ! D33   D(13,12,14,16)       -120.0083         estimate D2E/DX2                !
 ! D34   D(13,12,14,17)         -0.0083         estimate D2E/DX2                !
 ! D35   D(12,14,17,18)          0.0            estimate D2E/DX2                !
 ! D36   D(12,14,17,19)        180.0            estimate D2E/DX2                !
 ! D37   D(15,14,17,18)       -120.0            estimate D2E/DX2                !
 ! D38   D(15,14,17,19)         60.0            estimate D2E/DX2                !
 ! D39   D(16,14,17,18)        120.0            estimate D2E/DX2                !
 ! D40   D(16,14,17,19)        -60.0            estimate D2E/DX2                !
 ! D41   D(14,17,19,20)       -179.9989         estimate D2E/DX2                !
 ! D42   D(14,17,19,24)        -59.9989         estimate D2E/DX2                !
 ! D43   D(14,17,19,28)         60.0011         estimate D2E/DX2                !
 ! D44   D(18,17,19,20)          0.0011         estimate D2E/DX2                !
 ! D45   D(18,17,19,24)        120.0011         estimate D2E/DX2                !
 ! D46   D(18,17,19,28)       -119.9989         estimate D2E/DX2                !
 ! D47   D(17,19,20,21)         59.9998         estimate D2E/DX2                !
 ! D48   D(17,19,20,22)        179.9998         estimate D2E/DX2                !
 ! D49   D(17,19,20,23)        -60.0002         estimate D2E/DX2                !
 ! D50   D(24,19,20,21)        -60.0002         estimate D2E/DX2                !
 ! D51   D(24,19,20,22)         59.9998         estimate D2E/DX2                !
 ! D52   D(24,19,20,23)        179.9998         estimate D2E/DX2                !
 ! D53   D(28,19,20,21)        179.9997         estimate D2E/DX2                !
 ! D54   D(28,19,20,22)        -60.0002         estimate D2E/DX2                !
 ! D55   D(28,19,20,23)         59.9998         estimate D2E/DX2                !
 ! D56   D(17,19,24,25)         76.0809         estimate D2E/DX2                !
 ! D57   D(17,19,24,26)       -163.9191         estimate D2E/DX2                !
 ! D58   D(17,19,24,27)        -43.9191         estimate D2E/DX2                !
 ! D59   D(20,19,24,25)       -163.9191         estimate D2E/DX2                !
 ! D60   D(20,19,24,26)        -43.9191         estimate D2E/DX2                !
 ! D61   D(20,19,24,27)         76.0809         estimate D2E/DX2                !
 ! D62   D(28,19,24,25)        -43.9191         estimate D2E/DX2                !
 ! D63   D(28,19,24,26)         76.081          estimate D2E/DX2                !
 ! D64   D(28,19,24,27)       -163.919          estimate D2E/DX2                !
 ! D65   D(17,19,28,29)         46.8801         estimate D2E/DX2                !
 ! D66   D(17,19,28,30)        166.8801         estimate D2E/DX2                !
 ! D67   D(17,19,28,31)        -73.1199         estimate D2E/DX2                !
 ! D68   D(20,19,28,29)        -73.1199         estimate D2E/DX2                !
 ! D69   D(20,19,28,30)         46.8801         estimate D2E/DX2                !
 ! D70   D(20,19,28,31)        166.8801         estimate D2E/DX2                !
 ! D71   D(24,19,28,29)        166.8801         estimate D2E/DX2                !
 ! D72   D(24,19,28,30)        -73.1199         estimate D2E/DX2                !
 ! D73   D(24,19,28,31)         46.8801         estimate D2E/DX2                !
 --------------------------------------------------------------------------------
 Trust Radius=3.00D-01 FncErr=1.00D-07 GrdErr=1.00D-07
 Number of steps in this run= 168 maximum allowed number of steps= 186.
 GradGradGradGradGradGradGradGradGradGradGradGradGradGradGradGradGradGrad

                          Input orientation:                          
 ---------------------------------------------------------------------
 Center     Atomic      Atomic             Coordinates (Angstroms)
 Number     Number       Type             X           Y           Z
 ---------------------------------------------------------------------
      1          6           0       -5.376325   -2.327686    0.001678
      2          6           0       -3.981165   -2.327686    0.001678
      3          6           0       -3.283627   -1.119935    0.001678
      4          6           0       -3.981281    0.088574    0.000479
      5          6           0       -5.376106    0.088496    0.000000
      6          6           0       -6.073707   -1.119710    0.000996
      7          1           0       -5.926084   -3.280003    0.002128
      8          1           0       -3.431657   -3.280199    0.002993
      9          1           0       -3.431081    1.040717    0.000420
     10          1           0       -5.926228    1.040777   -0.000953
     11          1           0       -7.173311   -1.119527    0.000816
     12          6           0       -1.743627   -1.119823    0.002566
     13          8           0       -1.110194   -0.032472    0.002569
     14          6           0       -0.976173   -2.454969    0.003453
     15          1           0       -1.236130   -3.015204    0.877214
     16          1           0       -1.235342   -3.015912   -0.870088
     17          6           0        0.538432   -2.176455    0.004023
     18          8           0        0.964855   -0.992506    0.003736
     19          6           0        1.534611   -3.350860    0.004948
     20          6           0        2.973910   -2.803122    0.005404
     21          1           0        3.127443   -2.204499    0.878890
     22          1           0        3.666060   -3.619105    0.006051
     23          1           0        3.128260   -2.205191   -0.868412
     24          6           0        1.312465   -4.211438    1.262588
     25          1           0        0.435686   -4.811144    1.134092
     26          1           0        2.160001   -4.846695    1.414344
     27          1           0        1.187359   -3.574407    2.113141
     28          6           0        1.313636   -4.212425   -1.252222
     29          1           0        1.240855   -3.578245   -2.110952
     30          1           0        2.137668   -4.884081   -1.373670
     31          1           0        0.408852   -4.773568   -1.145530
 ---------------------------------------------------------------------
                    Distance matrix (angstroms):
                    1          2          3          4          5
     1  C    0.000000
     2  C    1.395160   0.000000
     3  C    2.416205   1.394712   0.000000
     4  C    2.790065   2.416260   1.395427   0.000000
     5  C    2.416183   2.789946   2.416356   1.394825   0.000000
     6  C    1.394829   2.416183   2.790080   2.416236   1.395138
     7  H    1.099610   2.165553   3.412986   3.889675   3.413102
     8  H    2.165414   1.099655   2.165330   3.413316   3.889601
     9  H    3.889745   3.413024   2.165678   1.099680   2.165606
    10  H    3.413055   3.889707   3.413506   2.165528   1.099761
    11  H    2.165365   3.413128   3.889684   3.412999   2.165471
    12  C    3.828241   2.542737   1.540000   2.543093   3.828178
    13  O    4.844366   3.675661   2.430306   2.873638   4.267627
    14  C    4.401993   3.007687   2.665832   3.937041   5.082188
    15  H    4.287244   2.962172   2.924184   4.235322   5.248034
    16  H    4.287350   2.961955   2.924069   4.235080   5.247888
    17  C    5.916691   4.522127   3.965397   5.055509   6.333386
    18  O    6.480221   5.123068   4.250393   5.062905   6.432446
    19  C    6.986267   5.609873   5.309656   6.500368   7.719274
    20  C    8.363760   6.971307   6.479962   7.532371   8.836530
    21  H    8.549780   7.163587   6.561067   7.520887   8.851023
    22  H    9.134140   7.755503   7.385392   8.498749   9.772774
    23  H    8.549856   7.163518   6.561032   7.520765   8.850954
    24  C    7.062458   5.758552   5.680787   6.935903   8.051120
    25  H    6.421012   5.192157   5.361032   6.693422   7.685672
    26  H    8.070764   6.786380   6.746662   8.004451   9.118628
    27  H    7.006749   5.720684   5.520183   6.677994   7.807771
    28  C    7.062583   5.758422   5.680720   6.935704   8.051001
    29  H    7.057915   5.770320   5.565737   6.721190   7.853997
    30  H    8.055236   6.772507   6.741722   8.003569   9.114290
    31  H    6.384880   5.154675   5.319729   6.650340   7.643143
                    6          7          8          9         10
     6  C    0.000000
     7  H    2.165331   0.000000
     8  H    3.412938   2.494427   0.000000
     9  H    3.413344   4.989355   4.320917   0.000000
    10  H    2.165516   4.320781   4.989362   2.495147   0.000000
    11  H    1.099604   2.494641   4.320704   4.320988   2.494420
    12  C    4.330080   4.707369   2.741654   2.741430   4.707691
    13  O    5.081195   5.808550   3.992108   2.557001   4.934172
    14  C    5.269513   5.018197   2.590445   4.271580   6.059975
    15  H    5.269042   4.778239   2.377987   4.694366   6.262522
    16  H    5.269170   4.778448   2.378218   4.694176   6.262311
    17  C    6.696051   6.558033   4.120663   5.109524   7.220972
    18  O    7.039712   7.260694   4.956093   4.843373   7.184795
    19  C    7.928716   7.461032   4.966771   6.629032   8.657403
    20  C    9.202895   8.912762   6.423309   7.469875   9.694744
    21  H    9.306376   9.159245   6.704187   7.370032   9.657893
    22  H   10.055350   9.598137   7.105804   8.490193  10.664264
    23  H    9.306468   9.159378   6.704290   7.369922   9.657771
    24  C    8.105919   7.406275   4.996046   7.188840   9.032218
    25  H    7.568539   6.640621   4.310396   7.105024   8.718213
    26  H    9.147782   8.356653   5.975990   8.241419  10.102103
    27  H    7.950457   7.425908   5.086707   6.862430   8.739132
    28  C    8.106064   7.406507   4.996240   7.188668   9.032022
    29  H    8.000470   7.477905   5.137116   6.900701   8.783765
    30  H    9.137115   8.336065   5.956930   8.246351  10.100233
    31  H    7.529194   6.609029   4.277705   7.061458   8.674670
                   11         12         13         14         15
    11  H    0.000000
    12  C    5.429684   0.000000
    13  O    6.159795   1.258400   0.000000
    14  C    6.339395   1.540000   2.426202   0.000000
    15  H    6.293789   2.148263   3.110877   1.070000   0.000000
    16  H    6.293984   2.148263   3.110966   1.070000   1.747303
    17  C    7.783835   2.514810   2.704558   1.540000   2.148263
    18  O    8.139157   2.711473   2.286372   2.430306   3.114258
    19  C    8.989258   3.965397   4.243430   2.665832   2.924127
    20  C   10.285942   5.008858   4.935223   3.965397   4.304587
    21  H   10.394889   5.066734   4.841819   4.203426   4.438245
    22  H   11.123843   5.959122   5.972986   4.785974   5.015485
    23  H   10.395027   5.066746   4.841882   4.203441   4.769825
    24  C    9.119230   4.526083   4.992062   3.147772   2.841623
    25  H    8.532829   4.433464   5.148378   2.970396   2.467053
    26  H   10.148919   5.578620   5.988659   4.188861   3.895712
    27  H    8.966000   4.366943   4.720018   3.222545   2.777322
    28  C    9.119451   4.526095   4.992140   3.147792   3.531167
    29  H    9.016820   4.406578   4.750464   3.263077   3.921939
    30  H   10.136834   5.579257   5.998396   4.182470   4.465612
    31  H    8.494428   4.393306   5.109171   2.935023   3.144726
                   16         17         18         19         20
    16  H    0.000000
    17  C    2.148263   0.000000
    18  O    3.114258   1.258400   0.000000
    19  C    2.924127   1.540000   2.426202   0.000000
    20  C    4.304599   2.514810   2.704558   1.540000   0.000000
    21  H    4.769823   2.732976   2.628994   2.148263   1.070000
    22  H    5.015496   3.444314   3.767696   2.148263   1.070000
    23  H    4.438276   2.732980   2.628987   2.148263   1.070000
    24  C    3.531134   2.514809   3.473767   1.540000   2.514809
    25  H    3.167322   2.868658   4.017427   2.148263   3.427634
    26  H    4.483163   3.427634   4.274688   2.148263   2.612231
    27  H    3.883433   2.612232   3.341453   2.148263   2.868659
    28  C    2.841647   2.514809   3.473752   1.540000   2.514809
    29  H    2.826218   2.632780   3.351735   2.148263   2.843108
    30  H    3.888553   3.433195   4.291514   2.148263   2.632781
    31  H    2.422518   2.843108   3.990787   2.148263   3.433196
                   21         22         23         24         25
    21  H    0.000000
    22  H    1.747303   0.000000
    23  H    1.747303   1.747303   0.000000
    24  C    2.732979   2.732976   3.444314   0.000000
    25  H    3.755700   3.623362   4.248644   1.070000   0.000000
    26  H    2.864238   2.399684   3.622989   1.070000   1.747303
    27  H    2.676556   3.253581   3.812022   1.070000   1.747303
    28  C    3.444314   2.732979   2.732976   2.514810   2.612232
    29  H    3.792829   3.219471   2.644141   3.433196   3.563517
    30  H    3.637835   2.416563   2.900518   2.843108   3.031656
    31  H    4.253132   3.642572   3.750805   2.632782   2.280090
                   26         27         28         29         30
    26  H    0.000000
    27  H    1.747303   0.000000
    28  C    2.868659   3.427635   0.000000
    29  H    3.857656   4.224434   1.070000   0.000000
    30  H    2.788354   3.843980   1.070000   1.747303   0.000000
    31  H    3.102391   3.558511   1.070000   1.747303   1.747303
                   31
    31  H    0.000000
 Stoichiometry    C13H16O2
 Framework group  C1[X(C13H16O2)]
 Deg. of freedom    87
 Full point group                 C1      NOp   1
 Largest Abelian subgroup         C1      NOp   1
 Largest concise Abelian subgroup C1      NOp   1
                         Standard orientation:                         
 ---------------------------------------------------------------------
 Center     Atomic      Atomic             Coordinates (Angstroms)
 Number     Number       Type             X           Y           Z
 ---------------------------------------------------------------------
      1          6           0       -3.676236   -1.631334   -0.001363
      2          6           0       -2.355627   -1.181374   -0.001363
      3          6           0       -2.084881    0.186807   -0.001363
      4          6           0       -3.135019    1.105734   -0.002562
      5          6           0       -4.455285    0.655808   -0.003041
      6          6           0       -4.725944   -0.712824   -0.002045
      7          1           0       -3.889481   -2.710069   -0.000913
      8          1           0       -1.528283   -1.905763   -0.000048
      9          1           0       -2.921300    2.184447   -0.002621
     10          1           0       -5.283136    1.379780   -0.003994
     11          1           0       -5.766849   -1.067290   -0.002225
     12          6           0       -0.627209    0.683587   -0.000475
     13          8           0       -0.378312    1.917127   -0.000472
     14          6           0        0.529841   -0.332698    0.000412
     15          1           0        0.464460   -0.946837    0.874173
     16          1           0        0.465434   -0.947253   -0.873130
     17          6           0        1.873687    0.419417    0.000982
     18          8           0        1.895481    1.677628    0.000695
     19          6           0        3.195398   -0.370950    0.001907
     20          6           0        4.381133    0.611716    0.002363
     21          1           0        4.333396    1.227868    0.875849
     22          1           0        5.299464    0.062565    0.003010
     23          1           0        4.334393    1.227476   -0.871454
     24          6           0        3.262671   -1.257187    1.259547
     25          1           0        2.626159   -2.107623    1.131051
     26          1           0        4.269799   -1.585156    1.411303
     27          1           0        2.938799   -0.694546    2.110100
     28          6           0        3.264099   -1.257744   -1.255263
     29          1           0        2.990673   -0.680925   -2.113994
     30          1           0        4.260717   -1.627746   -1.376711
     31          1           0        2.588640   -2.080709   -1.148572
 ---------------------------------------------------------------------
 Rotational constants (GHZ):      1.5469777      0.2657666      0.2389299
 Standard basis: 6-311G (5D, 7F)
 There are   243 symmetry adapted basis functions of A   symmetry.
 Integral buffers will be    262144 words long.
 Raffenetti 1 integral format.
 Two-electron integral symmetry is turned on.
   243 basis functions,   470 primitive gaussians,   243 cartesian basis functions
    55 alpha electrons       55 beta electrons
       nuclear repulsion energy       943.3727184387 Hartrees.
 NAtoms=   31 NActive=   31 NUniq=   31 SFac= 7.50D-01 NAtFMM=   80 NAOKFM=F Big=F
 One-electron integrals computed using PRISM.
 NBasis=   243 RedAO= T  NBF=   243
 NBsUse=   243 1.00D-06 NBFU=   243
 Harris functional with IExCor=  205 diagonalized for initial guess.
 ExpMin= 1.03D-01 ExpMax= 8.59D+03 ExpMxC= 1.30D+03 IAcc=1 IRadAn=         1 AccDes= 0.00D+00
 HarFok:  IExCor=  205 AccDes= 0.00D+00 IRadAn=         1 IDoV= 1
 ScaDFX=  1.000000  1.000000  1.000000  1.000000
 FoFCou: FMM=F IPFlag=           0 FMFlag=      100000 FMFlg1=           0
         NFxFlg=           0 DoJE=T BraDBF=F KetDBF=T FulRan=T
         Omega=  0.000000  0.000000  1.000000  0.000000  0.000000 ICntrl=     500 IOpCl=  0
         NMat0=    1 NMatS0=    1 NMatT0=    0 NMatD0=    1 NMtDS0=    0 NMtDT0=    0
         I1Cent=           4 NGrid=           0.
 Petite list used in FoFCou.
 Initial guess orbital symmetries:
       Occupied  (A) (A) (A) (A) (A) (A) (A) (A) (A) (A) (A) (A)
                 (A) (A) (A) (A) (A) (A) (A) (A) (A) (A) (A) (A)
                 (A) (A) (A) (A) (A) (A) (A) (A) (A) (A) (A) (A)
                 (A) (A) (A) (A) (A) (A) (A) (A) (A) (A) (A) (A)
                 (A) (A) (A) (A) (A) (A) (A)
       Virtual   (A) (A) (A) (A) (A) (A) (A) (A) (A) (A) (A) (A)
                 (A) (A) (A) (A) (A) (A) (A) (A) (A) (A) (A) (A)
                 (A) (A) (A) (A) (A) (A) (A) (A) (A) (A) (A) (A)
                 (A) (A) (A) (A) (A) (A) (A) (A) (A) (A) (A) (A)
                 (A) (A) (A) (A) (A) (A) (A) (A) (A) (A) (A) (A)
                 (A) (A) (A) (A) (A) (A) (A) (A) (A) (A) (A) (A)
                 (A) (A) (A) (A) (A) (A) (A) (A) (A) (A) (A) (A)
                 (A) (A) (A) (A) (A) (A) (A) (A) (A) (A) (A) (A)
                 (A) (A) (A) (A) (A) (A) (A) (A) (A) (A) (A) (A)
                 (A) (A) (A) (A) (A) (A) (A) (A) (A) (A) (A) (A)
                 (A) (A) (A) (A) (A) (A) (A) (A) (A) (A) (A) (A)
                 (A) (A) (A) (A) (A) (A) (A) (A) (A) (A) (A) (A)
                 (A) (A) (A) (A) (A) (A) (A) (A) (A) (A) (A) (A)
                 (A) (A) (A) (A) (A) (A) (A) (A) (A) (A) (A) (A)
                 (A) (A) (A) (A) (A) (A) (A) (A) (A) (A) (A) (A)
                 (A) (A) (A) (A) (A) (A) (A) (A)
 The electronic state of the initial guess is 1-A.
 Requested convergence on RMS density matrix=1.00D-08 within 128 cycles.
 Requested convergence on MAX density matrix=1.00D-06.
 Requested convergence on             energy=1.00D-06.
 No special actions if energy rises.
 Integral accuracy reduced to 1.0D-05 until final iterations.
 Initial convergence to 1.0D-05 achieved.  Increase integral accuracy.
 SCF Done:  E(RHF) =  -651.155715847     A.U. after   16 cycles
             Convg  =    0.6403D-08             -V/T =  2.0001

 **********************************************************************

            Population analysis using the SCF density.

 **********************************************************************

 Orbital symmetries:
       Occupied  (A) (A) (A) (A) (A) (A) (A) (A) (A) (A) (A) (A)
                 (A) (A) (A) (A) (A) (A) (A) (A) (A) (A) (A) (A)
                 (A) (A) (A) (A) (A) (A) (A) (A) (A) (A) (A) (A)
                 (A) (A) (A) (A) (A) (A) (A) (A) (A) (A) (A) (A)
                 (A) (A) (A) (A) (A) (A) (A)
       Virtual   (A) (A) (A) (A) (A) (A) (A) (A) (A) (A) (A) (A)
                 (A) (A) (A) (A) (A) (A) (A) (A) (A) (A) (A) (A)
                 (A) (A) (A) (A) (A) (A) (A) (A) (A) (A) (A) (A)
                 (A) (A) (A) (A) (A) (A) (A) (A) (A) (A) (A) (A)
                 (A) (A) (A) (A) (A) (A) (A) (A) (A) (A) (A) (A)
                 (A) (A) (A) (A) (A) (A) (A) (A) (A) (A) (A) (A)
                 (A) (A) (A) (A) (A) (A) (A) (A) (A) (A) (A) (A)
                 (A) (A) (A) (A) (A) (A) (A) (A) (A) (A) (A) (A)
                 (A) (A) (A) (A) (A) (A) (A) (A) (A) (A) (A) (A)
                 (A) (A) (A) (A) (A) (A) (A) (A) (A) (A) (A) (A)
                 (A) (A) (A) (A) (A) (A) (A) (A) (A) (A) (A) (A)
                 (A) (A) (A) (A) (A) (A) (A) (A) (A) (A) (A) (A)
                 (A) (A) (A) (A) (A) (A) (A) (A) (A) (A) (A) (A)
                 (A) (A) (A) (A) (A) (A) (A) (A) (A) (A) (A) (A)
                 (A) (A) (A) (A) (A) (A) (A) (A) (A) (A) (A) (A)
                 (A) (A) (A) (A) (A) (A) (A) (A)
 The electronic state is 1-A.
 Alpha  occ. eigenvalues --  -20.54807 -20.54421 -11.36074 -11.34732 -11.27214
 Alpha  occ. eigenvalues --  -11.27112 -11.26865 -11.26433 -11.26330 -11.26119
 Alpha  occ. eigenvalues --  -11.26027 -11.25795 -11.22820 -11.22812 -11.20799
 Alpha  occ. eigenvalues --   -1.39021  -1.35992  -1.17790  -1.12380  -1.06807
 Alpha  occ. eigenvalues --   -1.03589  -1.03129  -0.96311  -0.94871  -0.88026
 Alpha  occ. eigenvalues --   -0.85072  -0.83799  -0.77063  -0.71803  -0.70860
 Alpha  occ. eigenvalues --   -0.67663  -0.65381  -0.65261  -0.64096  -0.62810
 Alpha  occ. eigenvalues --   -0.62027  -0.61426  -0.60404  -0.59156  -0.58619
 Alpha  occ. eigenvalues --   -0.57053  -0.54792  -0.53460  -0.53073  -0.52628
 Alpha  occ. eigenvalues --   -0.51487  -0.50329  -0.48990  -0.48070  -0.46807
 Alpha  occ. eigenvalues --   -0.45580  -0.44632  -0.36923  -0.35555  -0.35018
 Alpha virt. eigenvalues --    0.07553   0.11623   0.12957   0.14130   0.15035
 Alpha virt. eigenvalues --    0.16806   0.17643   0.18320   0.19453   0.20156
 Alpha virt. eigenvalues --    0.20402   0.21210   0.22047   0.22957   0.23827
 Alpha virt. eigenvalues --    0.23870   0.24803   0.27661   0.28008   0.28563
 Alpha virt. eigenvalues --    0.30316   0.32368   0.34369   0.34386   0.37478
 Alpha virt. eigenvalues --    0.38125   0.39947   0.42636   0.43076   0.44074
 Alpha virt. eigenvalues --    0.44321   0.44540   0.44745   0.45816   0.48230
 Alpha virt. eigenvalues --    0.49703   0.53841   0.54924   0.55424   0.55799
 Alpha virt. eigenvalues --    0.57208   0.57354   0.58291   0.59554   0.60308
 Alpha virt. eigenvalues --    0.60850   0.61443   0.62451   0.63498   0.63608
 Alpha virt. eigenvalues --    0.64242   0.65050   0.66111   0.68063   0.69482
 Alpha virt. eigenvalues --    0.70638   0.71686   0.72836   0.75031   0.75825
 Alpha virt. eigenvalues --    0.77286   0.78596   0.79086   0.79984   0.80401
 Alpha virt. eigenvalues --    0.80806   0.80876   0.81438   0.82338   0.83277
 Alpha virt. eigenvalues --    0.83698   0.83825   0.84316   0.84947   0.85400
 Alpha virt. eigenvalues --    0.85797   0.86113   0.87010   0.88278   0.89292
 Alpha virt. eigenvalues --    0.89723   0.90073   0.90790   0.90999   0.93432
 Alpha virt. eigenvalues --    0.95313   0.97098   1.00096   1.02059   1.04628
 Alpha virt. eigenvalues --    1.07583   1.08143   1.09925   1.12236   1.14386
 Alpha virt. eigenvalues --    1.17201   1.18326   1.19547   1.20222   1.20471
 Alpha virt. eigenvalues --    1.24834   1.25945   1.30137   1.32132   1.32970
 Alpha virt. eigenvalues --    1.35886   1.43306   1.47836   1.51948   1.65545
 Alpha virt. eigenvalues --    1.83933   2.09397   2.54358   2.57253   2.57755
 Alpha virt. eigenvalues --    2.59723   2.60969   2.61947   2.63450   2.63755
 Alpha virt. eigenvalues --    2.65093   2.65358   2.66600   2.67423   2.68921
 Alpha virt. eigenvalues --    2.69258   2.71506   2.84271   2.90122   2.92175
 Alpha virt. eigenvalues --    2.94862   2.96189   3.01719   3.03684   3.07869
 Alpha virt. eigenvalues --    3.11289   3.14086   3.18276   3.21956   3.22573
 Alpha virt. eigenvalues --    3.22872   3.24301   3.27157   3.28430   3.29111
 Alpha virt. eigenvalues --    3.30708   3.31014   3.33142   3.34784   3.34999
 Alpha virt. eigenvalues --    3.37378   3.41173   3.41644   3.43711   3.48792
 Alpha virt. eigenvalues --    3.50026   3.51650   3.52960   3.54148   3.57706
 Alpha virt. eigenvalues --    3.60037   3.62844   3.64283   3.68056   3.69241
 Alpha virt. eigenvalues --    3.73674   3.83867   5.40893   5.46190   5.47423
 Alpha virt. eigenvalues --    5.51990   5.60867   5.69330  24.24820  24.44866
 Alpha virt. eigenvalues --   24.47970  24.48900  24.57593  24.60399  24.66784
 Alpha virt. eigenvalues --   24.69020  24.75447  24.78083  24.78997  24.79558
 Alpha virt. eigenvalues --   25.02550  51.57738  51.64429
          Condensed to atoms (all electrons):
              1          2          3          4          5          6
     1  C    5.072830   0.456537  -0.064657  -0.025331  -0.072819   0.495544
     2  C    0.456537   5.118619   0.407422  -0.098227  -0.028955  -0.093079
     3  C   -0.064657   0.407422   5.781471   0.449401  -0.058495  -0.008860
     4  C   -0.025331  -0.098227   0.449401   5.084246   0.430277  -0.085494
     5  C   -0.072819  -0.028955  -0.058495   0.430277   5.119669   0.472771
     6  C    0.495544  -0.093079  -0.008860  -0.085494   0.472771   5.013470
     7  H    0.395610  -0.037456   0.005588  -0.000296   0.005501  -0.037599
     8  H   -0.030604   0.389134  -0.045820   0.004000  -0.000304   0.004576
     9  H   -0.000544   0.004029  -0.040566   0.396608  -0.040471   0.004683
    10  H    0.005564  -0.000162   0.005715  -0.037145   0.397589  -0.039970
    11  H   -0.041160   0.007562  -0.001559   0.006933  -0.041119   0.397661
    12  C    0.005959  -0.011661   0.028139  -0.048789   0.008435   0.001301
    13  O   -0.000159   0.003787  -0.147241   0.012923   0.000685   0.000018
    14  C   -0.000997   0.008362  -0.186492   0.013748  -0.000534   0.000110
    15  H    0.000115  -0.000691   0.005874  -0.000378   0.000008  -0.000026
    16  H    0.000120  -0.000671   0.005902  -0.000385   0.000008  -0.000027
    17  C   -0.000013   0.000518   0.010631  -0.000532   0.000015   0.000000
    18  O    0.000000   0.000048  -0.001256   0.000030   0.000000   0.000000
    19  C    0.000000   0.000099  -0.000880   0.000003   0.000000   0.000000
    20  C    0.000000   0.000000   0.000003   0.000000   0.000000   0.000000
    21  H    0.000000   0.000000   0.000000   0.000000   0.000000   0.000000
    22  H    0.000000   0.000000   0.000000   0.000000   0.000000   0.000000
    23  H    0.000000   0.000000   0.000000   0.000000   0.000000   0.000000
    24  C    0.000000   0.000000  -0.000007   0.000000   0.000000   0.000000
    25  H    0.000000   0.000001  -0.000035   0.000000   0.000000   0.000000
    26  H    0.000000   0.000000   0.000000   0.000000   0.000000   0.000000
    27  H    0.000000  -0.000003   0.000021  -0.000001   0.000000   0.000000
    28  C    0.000000   0.000002  -0.000012   0.000000   0.000000   0.000000
    29  H    0.000000  -0.000003   0.000019   0.000000   0.000000   0.000000
    30  H    0.000000   0.000000   0.000000   0.000000   0.000000   0.000000
    31  H    0.000000   0.000001  -0.000037   0.000000   0.000000   0.000000
              7          8          9         10         11         12
     1  C    0.395610  -0.030604  -0.000544   0.005564  -0.041160   0.005959
     2  C   -0.037456   0.389134   0.004029  -0.000162   0.007562  -0.011661
     3  C    0.005588  -0.045820  -0.040566   0.005715  -0.001559   0.028139
     4  C   -0.000296   0.004000   0.396608  -0.037145   0.006933  -0.048789
     5  C    0.005501  -0.000304  -0.040471   0.397589  -0.041119   0.008435
     6  C   -0.037599   0.004576   0.004683  -0.039970   0.397661   0.001301
     7  H    0.506595  -0.003555   0.000015  -0.000194  -0.004000  -0.000301
     8  H   -0.003555   0.496107  -0.000212   0.000019  -0.000165  -0.001761
     9  H    0.000015  -0.000212   0.448699  -0.003377  -0.000112  -0.000788
    10  H   -0.000194   0.000019  -0.003377   0.500922  -0.003996  -0.000367
    11  H   -0.004000  -0.000165  -0.000112  -0.003996   0.506033  -0.000024
    12  C   -0.000301  -0.001761  -0.000788  -0.000367  -0.000024   5.064029
    13  O    0.000001   0.000094   0.011512  -0.000025   0.000000   0.641448
    14  C    0.000022   0.006761   0.002093  -0.000001   0.000001  -0.166966
    15  H    0.000000  -0.000308  -0.000053   0.000001   0.000000  -0.026834
    16  H    0.000000  -0.000347  -0.000054   0.000001   0.000000  -0.026784
    17  C    0.000000   0.000160  -0.000124   0.000000   0.000000   0.020012
    18  O    0.000000  -0.000010   0.000023   0.000000   0.000000   0.025878
    19  C    0.000000  -0.000028   0.000000   0.000000   0.000000   0.012224
    20  C    0.000000   0.000000   0.000000   0.000000   0.000000  -0.000650
    21  H    0.000000   0.000000   0.000000   0.000000   0.000000  -0.000067
    22  H    0.000000   0.000000   0.000000   0.000000   0.000000   0.000030
    23  H    0.000000   0.000000   0.000000   0.000000   0.000000  -0.000068
    24  C    0.000000   0.000002   0.000000   0.000000   0.000000  -0.000825
    25  H    0.000000   0.000009   0.000000   0.000000   0.000000   0.000041
    26  H    0.000000   0.000000   0.000000   0.000000   0.000000   0.000025
    27  H    0.000000  -0.000003   0.000000   0.000000   0.000000   0.000069
    28  C    0.000000   0.000000   0.000000   0.000000   0.000000  -0.000771
    29  H    0.000000  -0.000002   0.000000   0.000000   0.000000   0.000046
    30  H    0.000000   0.000000   0.000000   0.000000   0.000000   0.000025
    31  H    0.000000   0.000011   0.000000   0.000000   0.000000   0.000058
             13         14         15         16         17         18
     1  C   -0.000159  -0.000997   0.000115   0.000120  -0.000013   0.000000
     2  C    0.003787   0.008362  -0.000691  -0.000671   0.000518   0.000048
     3  C   -0.147241  -0.186492   0.005874   0.005902   0.010631  -0.001256
     4  C    0.012923   0.013748  -0.000378  -0.000385  -0.000532   0.000030
     5  C    0.000685  -0.000534   0.000008   0.000008   0.000015   0.000000
     6  C    0.000018   0.000110  -0.000026  -0.000027   0.000000   0.000000
     7  H    0.000001   0.000022   0.000000   0.000000   0.000000   0.000000
     8  H    0.000094   0.006761  -0.000308  -0.000347   0.000160  -0.000010
     9  H    0.011512   0.002093  -0.000053  -0.000054  -0.000124   0.000023
    10  H   -0.000025  -0.000001   0.000001   0.000001   0.000000   0.000000
    11  H    0.000000   0.000001   0.000000   0.000000   0.000000   0.000000
    12  C    0.641448  -0.166966  -0.026834  -0.026784   0.020012   0.025878
    13  O    8.110038  -0.144799   0.001711   0.001734   0.023502  -0.074696
    14  C   -0.144799   6.933156   0.335387   0.335400  -0.162808  -0.146709
    15  H    0.001711   0.335387   0.460393  -0.010987  -0.021653   0.002005
    16  H    0.001734   0.335400  -0.010987   0.460585  -0.021985   0.002014
    17  C    0.023502  -0.162808  -0.021653  -0.021985   5.273451   0.605800
    18  O   -0.074696  -0.146709   0.002005   0.002014   0.605800   8.129923
    19  C   -0.001291  -0.220986   0.003325   0.003426  -0.015916  -0.130553
    20  C    0.000079   0.011256  -0.000180  -0.000171  -0.088570   0.010818
    21  H    0.000007   0.000639  -0.000011  -0.000036  -0.005260   0.003729
    22  H    0.000001  -0.000420   0.000006   0.000006   0.013495   0.000329
    23  H    0.000007   0.000632  -0.000037  -0.000012  -0.005272   0.003760
    24  C    0.000030   0.016745   0.001160   0.000208  -0.098643   0.002209
    25  H   -0.000007   0.002070  -0.000386  -0.000219  -0.005644  -0.000080
    26  H   -0.000001  -0.000539   0.000191  -0.000045   0.007356  -0.000282
    27  H    0.000027  -0.001648   0.000921  -0.000018  -0.000070   0.001094
    28  C    0.000030   0.017278   0.000273   0.001014  -0.101295   0.002175
    29  H    0.000025  -0.001548  -0.000031   0.000834  -0.000407   0.001091
    30  H   -0.000001  -0.000562  -0.000044   0.000189   0.007540  -0.000281
    31  H   -0.000007   0.002187  -0.000219  -0.000421  -0.005947  -0.000071
             19         20         21         22         23         24
     1  C    0.000000   0.000000   0.000000   0.000000   0.000000   0.000000
     2  C    0.000099   0.000000   0.000000   0.000000   0.000000   0.000000
     3  C   -0.000880   0.000003   0.000000   0.000000   0.000000  -0.000007
     4  C    0.000003   0.000000   0.000000   0.000000   0.000000   0.000000
     5  C    0.000000   0.000000   0.000000   0.000000   0.000000   0.000000
     6  C    0.000000   0.000000   0.000000   0.000000   0.000000   0.000000
     7  H    0.000000   0.000000   0.000000   0.000000   0.000000   0.000000
     8  H   -0.000028   0.000000   0.000000   0.000000   0.000000   0.000002
     9  H    0.000000   0.000000   0.000000   0.000000   0.000000   0.000000
    10  H    0.000000   0.000000   0.000000   0.000000   0.000000   0.000000
    11  H    0.000000   0.000000   0.000000   0.000000   0.000000   0.000000
    12  C    0.012224  -0.000650  -0.000067   0.000030  -0.000068  -0.000825
    13  O   -0.001291   0.000079   0.000007   0.000001   0.000007   0.000030
    14  C   -0.220986   0.011256   0.000639  -0.000420   0.000632   0.016745
    15  H    0.003325  -0.000180  -0.000011   0.000006  -0.000037   0.001160
    16  H    0.003426  -0.000171  -0.000036   0.000006  -0.000012   0.000208
    17  C   -0.015916  -0.088570  -0.005260   0.013495  -0.005272  -0.098643
    18  O   -0.130553   0.010818   0.003729   0.000329   0.003760   0.002209
    19  C    6.529124   0.207850  -0.043221  -0.053205  -0.043270   0.162634
    20  C    0.207850   5.293742   0.393322   0.388619   0.393121  -0.098287
    21  H   -0.043221   0.393322   0.508638  -0.030261  -0.021025  -0.003031
    22  H   -0.053205   0.388619  -0.030261   0.564485  -0.030179  -0.006843
    23  H   -0.043270   0.393121  -0.021025  -0.030179   0.508675   0.008702
    24  C    0.162634  -0.098287  -0.003031  -0.006843   0.008702   5.435051
    25  H   -0.043699   0.008087  -0.000139  -0.000066  -0.000382   0.381241
    26  H   -0.039736  -0.004583  -0.000357   0.002444   0.000109   0.390962
    27  H   -0.052351  -0.001012   0.002395  -0.000326  -0.000330   0.387824
    28  C    0.170740  -0.099802   0.008625  -0.006603  -0.003224  -0.109727
    29  H   -0.051681  -0.001251  -0.000315  -0.000352   0.002564   0.009340
    30  H   -0.039538  -0.004524   0.000064   0.002461  -0.000372  -0.003287
    31  H   -0.043589   0.008156  -0.000376  -0.000078  -0.000133  -0.006681
             25         26         27         28         29         30
     1  C    0.000000   0.000000   0.000000   0.000000   0.000000   0.000000
     2  C    0.000001   0.000000  -0.000003   0.000002  -0.000003   0.000000
     3  C   -0.000035   0.000000   0.000021  -0.000012   0.000019   0.000000
     4  C    0.000000   0.000000  -0.000001   0.000000   0.000000   0.000000
     5  C    0.000000   0.000000   0.000000   0.000000   0.000000   0.000000
     6  C    0.000000   0.000000   0.000000   0.000000   0.000000   0.000000
     7  H    0.000000   0.000000   0.000000   0.000000   0.000000   0.000000
     8  H    0.000009   0.000000  -0.000003   0.000000  -0.000002   0.000000
     9  H    0.000000   0.000000   0.000000   0.000000   0.000000   0.000000
    10  H    0.000000   0.000000   0.000000   0.000000   0.000000   0.000000
    11  H    0.000000   0.000000   0.000000   0.000000   0.000000   0.000000
    12  C    0.000041   0.000025   0.000069  -0.000771   0.000046   0.000025
    13  O   -0.000007  -0.000001   0.000027   0.000030   0.000025  -0.000001
    14  C    0.002070  -0.000539  -0.001648   0.017278  -0.001548  -0.000562
    15  H   -0.000386   0.000191   0.000921   0.000273  -0.000031  -0.000044
    16  H   -0.000219  -0.000045  -0.000018   0.001014   0.000834   0.000189
    17  C   -0.005644   0.007356  -0.000070  -0.101295  -0.000407   0.007540
    18  O   -0.000080  -0.000282   0.001094   0.002175   0.001091  -0.000281
    19  C   -0.043699  -0.039736  -0.052351   0.170740  -0.051681  -0.039538
    20  C    0.008087  -0.004583  -0.001012  -0.099802  -0.001251  -0.004524
    21  H   -0.000139  -0.000357   0.002395   0.008625  -0.000315   0.000064
    22  H   -0.000066   0.002444  -0.000326  -0.006603  -0.000352   0.002461
    23  H   -0.000382   0.000109  -0.000330  -0.003224   0.002564  -0.000372
    24  C    0.381241   0.390962   0.387824  -0.109727   0.009340  -0.003287
    25  H    0.554212  -0.025491  -0.028845  -0.006579   0.000028   0.000188
    26  H   -0.025491   0.506301  -0.023602  -0.002976  -0.000341   0.002376
    27  H   -0.028845  -0.023602   0.521813   0.009198  -0.000348  -0.000321
    28  C   -0.006579  -0.002976   0.009198   5.429325   0.387687   0.390669
    29  H    0.000028  -0.000341  -0.000348   0.387687   0.521582  -0.023972
    30  H    0.000188   0.002376  -0.000321   0.390669  -0.023972   0.507799
    31  H    0.002930   0.000119  -0.000007   0.381156  -0.028688  -0.025512
             31
     1  C    0.000000
     2  C    0.000001
     3  C   -0.000037
     4  C    0.000000
     5  C    0.000000
     6  C    0.000000
     7  H    0.000000
     8  H    0.000011
     9  H    0.000000
    10  H    0.000000
    11  H    0.000000
    12  C    0.000058
    13  O   -0.000007
    14  C    0.002187
    15  H   -0.000219
    16  H   -0.000421
    17  C   -0.005947
    18  O   -0.000071
    19  C   -0.043589
    20  C    0.008156
    21  H   -0.000376
    22  H   -0.000078
    23  H   -0.000133
    24  C   -0.006681
    25  H    0.002930
    26  H    0.000119
    27  H   -0.000007
    28  C    0.381156
    29  H   -0.028688
    30  H   -0.025512
    31  H    0.555165
 Mulliken atomic charges:
              1
     1  C   -0.195998
     2  C   -0.125214
     3  C   -0.144271
     4  C   -0.101589
     5  C   -0.192261
     6  C   -0.125080
     7  H    0.170067
     8  H    0.182245
     9  H    0.218637
    10  H    0.175426
    11  H    0.173946
    12  C    0.478936
    13  O   -0.439432
    14  C   -0.650840
    15  H    0.250468
    16  H    0.250722
    17  C    0.571659
    18  O   -0.436989
    19  C   -0.309482
    20  C   -0.416023
    21  H    0.186680
    22  H    0.156458
    23  H    0.186734
    24  C   -0.468777
    25  H    0.162764
    26  H    0.188069
    27  H    0.185523
    28  C   -0.467186
    29  H    0.185725
    30  H    0.187102
    31  H    0.161982
 Sum of Mulliken atomic charges =   0.00000
 Mulliken charges with hydrogens summed into heavy atoms:
              1
     1  C   -0.025931
     2  C    0.057031
     3  C   -0.144271
     4  C    0.117047
     5  C   -0.016835
     6  C    0.048865
    12  C    0.478936
    13  O   -0.439432
    14  C   -0.149651
    17  C    0.571659
    18  O   -0.436989
    19  C   -0.309482
    20  C    0.113849
    24  C    0.067580
    28  C    0.067623
 Sum of Mulliken charges with hydrogens summed into heavy atoms =   0.00000
 Electronic spatial extent (au):  <R**2>=           4572.7383
 Charge=              0.0000 electrons
 Dipole moment (field-independent basis, Debye):
    X=             -1.0486    Y=             -6.0574    Z=              0.0017  Tot=              6.1475
 Quadrupole moment (field-independent basis, Debye-Ang):
   XX=            -76.3793   YY=            -99.1042   ZZ=            -93.5307
   XY=             -6.0824   XZ=              0.0138   YZ=             -0.0051
 Traceless Quadrupole moment (field-independent basis, Debye-Ang):
   XX=             13.2921   YY=             -9.4328   ZZ=             -3.8593
   XY=             -6.0824   XZ=              0.0138   YZ=             -0.0051
 Octapole moment (field-independent basis, Debye-Ang**2):
  XXX=            -33.6704  YYY=            -17.4886  ZZZ=              0.0254  XYY=            -20.7241
  XXY=             -8.2855  XXZ=              0.0305  XZZ=             23.0035  YZZ=              7.4853
  YYZ=             -0.0313  XYZ=             -0.0019
 Hexadecapole moment (field-independent basis, Debye-Ang**3):
 XXXX=          -4753.1155 YYYY=           -832.0199 ZZZZ=           -281.9013 XXXY=            -35.3932
 XXXZ=             -0.4694 YYYX=             -1.7074 YYYZ=              0.1351 ZZZX=             -1.6374
 ZZZY=              0.0353 XXYY=           -967.8694 XXZZ=           -985.8642 YYZZ=           -189.6860
 XXYZ=             -0.1680 YYXZ=             -0.5278 ZZXY=              2.3140
 N-N= 9.433727184387D+02 E-N=-3.408398198477D+03  KE= 6.510635193133D+02
 Calling FoFJK, ICntrl=      2127 FMM=F ISym2X=0 I1Cent= 0 IOpClX= 0 NMat=1 NMatS=1 NMatT=0.
 ***** Axes restored to original set *****
 -------------------------------------------------------------------
 Center     Atomic                   Forces (Hartrees/Bohr)
 Number     Number              X              Y              Z
 -------------------------------------------------------------------
      1        6          -0.006197205   -0.011914588   -0.000019715
      2        6           0.000641272   -0.010366240    0.000162805
      3        6           0.029320086   -0.005856954   -0.000057803
      4        6           0.002413973    0.015771881    0.000043115
      5        6          -0.003317805    0.009982421    0.000019426
      6        6          -0.011529128   -0.001270493   -0.000075442
      7        1           0.010201199    0.017493155   -0.000002293
      8        1          -0.012902376    0.017194274   -0.000068722
      9        1          -0.008412818   -0.020207950   -0.000019097
     10        1           0.010723582   -0.017671225    0.000026069
     11        1           0.020202023   -0.000261000    0.000012571
     12        6           0.010335626    0.051495995   -0.000004769
     13        8          -0.071517505   -0.045895926   -0.000018298
     14        6           0.015484701    0.037739977   -0.000002201
     15        1          -0.002581678   -0.006241066    0.004397113
     16        1          -0.002603459   -0.006134588   -0.004347821
     17        6           0.023305317    0.054224519   -0.000221473
     18        8           0.004586023   -0.082263341    0.000049765
     19        6           0.001284247    0.002621041   -0.000272715
     20        6          -0.017151542   -0.000212747   -0.000116882
     21        1           0.004641416    0.005592650    0.003242841
     22        1           0.005702136   -0.006377930   -0.000019258
     23        1           0.004654345    0.005629179   -0.003185777
     24        6          -0.002025358    0.010075977   -0.010602479
     25        1          -0.006256707   -0.006753425    0.004708023
     26        1           0.003794460   -0.006040308    0.002682975
     27        1           0.000630542    0.001015381    0.010517426
     28        6          -0.001782347    0.010441631    0.010634314
     29        1           0.000769494    0.001100167   -0.010308381
     30        1           0.003806881   -0.006198965   -0.002458135
     31        1          -0.006219397   -0.006711500   -0.004695182
 -------------------------------------------------------------------
 Cartesian Forces:  Max     0.082263341 RMS     0.017167365

 GradGradGradGradGradGradGradGradGradGradGradGradGradGradGradGradGradGrad
 Berny optimization.
 Internal  Forces:  Max     0.121123197 RMS     0.017452139
 Search for a local minimum.
 Step number   1 out of a maximum of  168
 All quantities printed in internal units (Hartrees-Bohrs-Radians)
 Mixed Optimization -- RFO/linear search
 Second derivative matrix not updated -- first step.
     Eigenvalues ---    0.00237   0.00237   0.00237   0.00237   0.00237
     Eigenvalues ---    0.00237   0.00237   0.00237   0.00237   0.01564
     Eigenvalues ---    0.02152   0.02153   0.02154   0.02155   0.02155
     Eigenvalues ---    0.02155   0.02156   0.02157   0.04739   0.05087
     Eigenvalues ---    0.05241   0.05241   0.05720   0.05720   0.05720
     Eigenvalues ---    0.05720   0.05720   0.05720   0.06358   0.09244
     Eigenvalues ---    0.12847   0.15006   0.15006   0.16000   0.16000
     Eigenvalues ---    0.16000   0.16000   0.16000   0.16000   0.16000
     Eigenvalues ---    0.16000   0.16000   0.16000   0.16000   0.16000
     Eigenvalues ---    0.16000   0.16000   0.22000   0.22000   0.22020
     Eigenvalues ---    0.23486   0.25000   0.25000   0.25000   0.25000
     Eigenvalues ---    0.25000   0.28519   0.28519   0.28519   0.28519
     Eigenvalues ---    0.28519   0.28519   0.28519   0.33709   0.33718
     Eigenvalues ---    0.33720   0.33725   0.33726   0.37230   0.37230
     Eigenvalues ---    0.37230   0.37230   0.37230   0.37230   0.37230
     Eigenvalues ---    0.37230   0.37230   0.37230   0.37230   0.42116
     Eigenvalues ---    0.42305   0.46412   0.46453   0.46466   0.46497
     Eigenvalues ---    0.80209   0.802091000.000001000.000001000.00000
     Eigenvalues --- 1000.000001000.000001000.000001000.000001000.00000
     Eigenvalues --- 1000.000001000.000001000.000001000.000001000.00000
     Eigenvalues --- 1000.000001000.000001000.000001000.000001000.00000
     Eigenvalues --- 1000.000001000.000001000.000001000.000001000.00000
     Eigenvalues --- 1000.000001000.000001000.000001000.000001000.00000
     Eigenvalues --- 1000.000001000.000001000.000001000.000001000.00000
     Eigenvalues --- 1000.000001000.000001000.000001000.000001000.00000
     Eigenvalues --- 1000.000001000.000001000.000001000.000001000.00000
     Eigenvalues --- 1000.000001000.000001000.000001000.000001000.00000
     Eigenvalues --- 1000.000001000.000001000.000001000.000001000.00000
     Eigenvalues --- 1000.000001000.000001000.000001000.000001000.00000
     Eigenvalues --- 1000.000001000.000001000.000001000.000001000.00000
     Eigenvalues --- 1000.000001000.000001000.000001000.000001000.00000
     Eigenvalues --- 1000.000001000.000001000.00000
 RFO step:  Lambda=-1.17724467D-01 EMin= 2.36824009D-03
 Linear search not attempted -- first point.
 Maximum step size (   0.300) exceeded in Quadratic search.
    -- Step size scaled by   0.525
 Iteration  1 RMS(Cart)=  0.20309892 RMS(Int)=  0.00876389
 Iteration  2 RMS(Cart)=  0.03610815 RMS(Int)=  0.00037963
 Iteration  3 RMS(Cart)=  0.00038502 RMS(Int)=  0.00035096
 Iteration  4 RMS(Cart)=  0.00000011 RMS(Int)=  0.00035096
 Variable       Old X    -DE/DX   Delta X   Delta X   Delta X     New X
                                 (Linear)    (Quad)   (Total)
    R1        2.63647  -0.00940   0.00000  -0.00842  -0.00842   2.62805
    R2        2.63584  -0.00935   0.00000  -0.00849  -0.00849   2.62735
    R3        2.07796  -0.02025   0.00000  -0.02339  -0.02339   2.05458
    R4        2.63562  -0.00266   0.00000  -0.00228  -0.00228   2.63335
    R5        2.07805  -0.02134   0.00000  -0.02465  -0.02465   2.05340
    R6        2.63697  -0.00752   0.00000  -0.00673  -0.00673   2.63024
    R7        2.91018  -0.03114   0.00000  -0.04061  -0.04061   2.86957
    R8        2.63584  -0.01069   0.00000  -0.00970  -0.00970   2.62614
    R9        2.07809  -0.02171   0.00000  -0.02507  -0.02507   2.05302
   R10        2.63643  -0.00697   0.00000  -0.00641  -0.00641   2.63002
   R11        2.07825  -0.02067   0.00000  -0.02388  -0.02388   2.05437
   R12        2.07795  -0.02020   0.00000  -0.02333  -0.02333   2.05462
   R13        2.37803  -0.07566   0.00000  -0.04322  -0.04322   2.33481
   R14        2.91018   0.01366   0.00000   0.01782   0.01782   2.92800
   R15        2.02201   0.00749   0.00000   0.00803   0.00803   2.03003
   R16        2.02201   0.00740   0.00000   0.00793   0.00793   2.02994
   R17        2.91018   0.01510   0.00000   0.01969   0.01969   2.92987
   R18        2.37803  -0.07584   0.00000  -0.04333  -0.04333   2.33471
   R19        2.91018  -0.00846   0.00000  -0.01103  -0.01103   2.89914
   R20        2.91018  -0.00037   0.00000  -0.00048  -0.00048   2.90970
   R21        2.91018   0.00747   0.00000   0.00975   0.00975   2.91993
   R22        2.91018   0.00683   0.00000   0.00891   0.00891   2.91909
   R23        2.02201   0.00644   0.00000   0.00691   0.00691   2.02891
   R24        2.02201   0.00855   0.00000   0.00917   0.00917   2.03118
   R25        2.02201   0.00642   0.00000   0.00688   0.00688   2.02889
   R26        2.02201   0.00835   0.00000   0.00895   0.00895   2.03096
   R27        2.02201   0.00697   0.00000   0.00748   0.00748   2.02948
   R28        2.02201   0.00889   0.00000   0.00953   0.00953   2.03154
   R29        2.02201   0.00887   0.00000   0.00951   0.00951   2.03152
   R30        2.02201   0.00710   0.00000   0.00762   0.00762   2.02962
   R31        2.02201   0.00831   0.00000   0.00891   0.00891   2.03092
    A1        2.09437  -0.00078   0.00000  -0.00126  -0.00126   2.09311
    A2        2.09435   0.00030   0.00000   0.00045   0.00045   2.09480
    A3        2.09447   0.00048   0.00000   0.00080   0.00080   2.09527
    A4        2.09455   0.00119   0.00000   0.00212   0.00212   2.09667
    A5        2.09406  -0.00328   0.00000  -0.00614  -0.00614   2.08792
    A6        2.09458   0.00209   0.00000   0.00402   0.00402   2.09860
    A7        2.09429  -0.00236   0.00000  -0.00313  -0.00313   2.09116
    A8        2.09462   0.01130   0.00000   0.01603   0.01603   2.11065
    A9        2.09427  -0.00894   0.00000  -0.01290  -0.01290   2.08137
   A10        2.09429   0.00054   0.00000   0.00079   0.00079   2.09508
   A11        2.09407  -0.00321   0.00000  -0.00595  -0.00595   2.08811
   A12        2.09483   0.00267   0.00000   0.00516   0.00516   2.09999
   A13        2.09448   0.00098   0.00000   0.00116   0.00116   2.09563
   A14        2.09459  -0.00095   0.00000  -0.00145  -0.00146   2.09314
   A15        2.09411  -0.00002   0.00000   0.00030   0.00030   2.09441
   A16        2.09440   0.00043   0.00000   0.00032   0.00032   2.09471
   A17        2.09453  -0.00048   0.00000  -0.00066  -0.00066   2.09387
   A18        2.09426   0.00005   0.00000   0.00035   0.00035   2.09460
   A19        2.09836  -0.03052   0.00000  -0.04362  -0.04362   2.05474
   A20        2.09241  -0.03097   0.00000  -0.04425  -0.04425   2.04817
   A21        2.09241   0.06149   0.00000   0.08787   0.08787   2.18028
   A22        1.91063  -0.03281   0.00000  -0.04675  -0.04742   1.86321
   A23        1.91063  -0.03285   0.00000  -0.04683  -0.04750   1.86314
   A24        1.91063   0.12112   0.00000   0.19518   0.19523   2.10586
   A25        1.91063   0.01086   0.00000  -0.00637  -0.00991   1.90072
   A26        1.91063  -0.03318   0.00000  -0.04765  -0.04839   1.86224
   A27        1.91063  -0.03314   0.00000  -0.04758  -0.04831   1.86232
   A28        2.09836   0.05630   0.00000   0.08044   0.08044   2.17880
   A29        2.09241  -0.03604   0.00000  -0.05150  -0.05150   2.04092
   A30        2.09241  -0.02025   0.00000  -0.02894  -0.02894   2.06347
   A31        1.91063   0.00026   0.00000  -0.00029  -0.00029   1.91034
   A32        1.91063  -0.00101   0.00000  -0.00256  -0.00256   1.90807
   A33        1.91063  -0.00086   0.00000  -0.00229  -0.00229   1.90835
   A34        1.91063   0.00008   0.00000   0.00077   0.00077   1.91140
   A35        1.91063  -0.00014   0.00000   0.00030   0.00030   1.91093
   A36        1.91063   0.00168   0.00000   0.00407   0.00407   1.91470
   A37        1.91063   0.00532   0.00000   0.01006   0.01003   1.92066
   A38        1.91063  -0.00147   0.00000  -0.00278  -0.00277   1.90786
   A39        1.91063   0.00538   0.00000   0.01017   0.01015   1.92078
   A40        1.91063  -0.00192   0.00000  -0.00362  -0.00362   1.90702
   A41        1.91063  -0.00538   0.00000  -0.01019  -0.01025   1.90039
   A42        1.91063  -0.00193   0.00000  -0.00364  -0.00363   1.90700
   A43        1.91063   0.00732   0.00000   0.01423   0.01416   1.92480
   A44        1.91063   0.00124   0.00000   0.00177   0.00176   1.91239
   A45        1.91063   0.00582   0.00000   0.01119   0.01113   1.92176
   A46        1.91063  -0.00470   0.00000  -0.00926  -0.00928   1.90136
   A47        1.91063  -0.00528   0.00000  -0.00885  -0.00897   1.90167
   A48        1.91063  -0.00439   0.00000  -0.00907  -0.00908   1.90156
   A49        1.91063   0.00551   0.00000   0.01063   0.01057   1.92121
   A50        1.91063   0.00109   0.00000   0.00148   0.00147   1.91210
   A51        1.91063   0.00734   0.00000   0.01427   0.01421   1.92484
   A52        1.91063  -0.00414   0.00000  -0.00858  -0.00858   1.90205
   A53        1.91063  -0.00513   0.00000  -0.00855  -0.00866   1.90197
   A54        1.91063  -0.00467   0.00000  -0.00925  -0.00926   1.90137
    D1        0.00056  -0.00002   0.00000  -0.00007  -0.00007   0.00049
    D2        3.14078   0.00003   0.00000   0.00010   0.00010   3.14087
    D3       -3.14112  -0.00002   0.00000  -0.00007  -0.00007  -3.14119
    D4       -0.00091   0.00003   0.00000   0.00010   0.00010  -0.00081
    D5        0.00026  -0.00001   0.00000  -0.00004  -0.00004   0.00022
    D6        3.14140   0.00001   0.00000   0.00003   0.00003   3.14144
    D7       -3.14124  -0.00001   0.00000  -0.00004  -0.00004  -3.14128
    D8       -0.00010   0.00001   0.00000   0.00003   0.00003  -0.00007
    D9       -0.00099   0.00003   0.00000   0.00013   0.00013  -0.00087
   D10        3.14093   0.00003   0.00000   0.00009   0.00009   3.14102
   D11       -3.14120  -0.00001   0.00000  -0.00003  -0.00003  -3.14124
   D12        0.00072  -0.00002   0.00000  -0.00007  -0.00007   0.00065
   D13        0.00060  -0.00002   0.00000  -0.00007  -0.00007   0.00052
   D14       -3.14153   0.00000   0.00000  -0.00001  -0.00001  -3.14154
   D15       -3.14132  -0.00001   0.00000  -0.00003  -0.00003  -3.14136
   D16       -0.00026   0.00001   0.00000   0.00003   0.00003  -0.00024
   D17        3.14159   0.00001   0.00000   0.00003   0.00003  -3.14156
   D18        0.00000   0.00000   0.00000   0.00002   0.00002   0.00002
   D19        0.00033   0.00000   0.00000  -0.00001  -0.00001   0.00032
   D20       -3.14127   0.00000   0.00000  -0.00002  -0.00002  -3.14128
   D21        0.00023  -0.00001   0.00000  -0.00004  -0.00004   0.00019
   D22       -3.14158   0.00000   0.00000   0.00001   0.00001  -3.14157
   D23       -3.14083  -0.00002   0.00000  -0.00009  -0.00009  -3.14092
   D24        0.00054  -0.00001   0.00000  -0.00005  -0.00005   0.00050
   D25       -0.00066   0.00002   0.00000   0.00009   0.00009  -0.00057
   D26        3.14138   0.00001   0.00000   0.00002   0.00002   3.14141
   D27        3.14116   0.00001   0.00000   0.00004   0.00004   3.14120
   D28        0.00001  -0.00001   0.00000  -0.00002  -0.00002  -0.00001
   D29       -1.04734   0.01345   0.00000   0.03254   0.03180  -1.01555
   D30        1.04705  -0.01346   0.00000  -0.03257  -0.03182   1.01523
   D31        3.14145   0.00001   0.00000   0.00001   0.00001   3.14146
   D32        2.09425   0.01345   0.00000   0.03253   0.03179   2.12604
   D33       -2.09454  -0.01346   0.00000  -0.03258  -0.03183  -2.12637
   D34       -0.00014   0.00000   0.00000   0.00000   0.00000  -0.00015
   D35        0.00000   0.00000   0.00000   0.00000   0.00000   0.00000
   D36        3.14159  -0.00005   0.00000  -0.00022  -0.00022   3.14137
   D37       -2.09439  -0.01366   0.00000  -0.03308  -0.03226  -2.12665
   D38        1.04720  -0.01372   0.00000  -0.03330  -0.03248   1.01471
   D39        2.09439   0.01365   0.00000   0.03304   0.03223   2.12662
   D40       -1.04720   0.01360   0.00000   0.03282   0.03200  -1.01520
   D41       -3.14157  -0.00002   0.00000   0.00003   0.00003  -3.14155
   D42       -1.04718  -0.00039   0.00000  -0.00077  -0.00078  -1.04796
   D43        1.04722   0.00052   0.00000   0.00124   0.00124   1.04846
   D44        0.00002  -0.00007   0.00000  -0.00019  -0.00019  -0.00017
   D45        2.09441  -0.00044   0.00000  -0.00099  -0.00099   2.09342
   D46       -2.09438   0.00047   0.00000   0.00102   0.00103  -2.09335
   D47        1.04719  -0.00001   0.00000   0.00002   0.00004   1.04723
   D48        3.14159  -0.00001   0.00000   0.00004   0.00004  -3.14155
   D49       -1.04720   0.00002   0.00000   0.00012   0.00010  -1.04710
   D50       -1.04720   0.00102   0.00000   0.00287   0.00288  -1.04432
   D51        1.04719   0.00103   0.00000   0.00289   0.00289   1.05008
   D52        3.14159   0.00105   0.00000   0.00296   0.00294  -3.13865
   D53        3.14159  -0.00100   0.00000  -0.00278  -0.00276   3.13883
   D54       -1.04720  -0.00099   0.00000  -0.00276  -0.00276  -1.04996
   D55        1.04719  -0.00096   0.00000  -0.00268  -0.00270   1.04450
   D56        1.32786  -0.00026   0.00000  -0.00164  -0.00162   1.32624
   D57       -2.86093  -0.00077   0.00000  -0.00319  -0.00319  -2.86412
   D58       -0.76653  -0.00183   0.00000  -0.00637  -0.00640  -0.77293
   D59       -2.86093  -0.00051   0.00000  -0.00310  -0.00308  -2.86400
   D60       -0.76653  -0.00103   0.00000  -0.00465  -0.00465  -0.77118
   D61        1.32786  -0.00208   0.00000  -0.00782  -0.00785   1.32001
   D62       -0.76653   0.00039   0.00000   0.00024   0.00026  -0.76627
   D63        1.32786  -0.00012   0.00000  -0.00131  -0.00131   1.32656
   D64       -2.86093  -0.00118   0.00000  -0.00449  -0.00451  -2.86544
   D65        0.81821   0.00171   0.00000   0.00580   0.00583   0.82405
   D66        2.91261   0.00068   0.00000   0.00271   0.00271   2.91532
   D67       -1.27618   0.00012   0.00000   0.00103   0.00101  -1.27518
   D68       -1.27618   0.00201   0.00000   0.00738   0.00741  -1.26877
   D69        0.81821   0.00098   0.00000   0.00429   0.00429   0.82250
   D70        2.91261   0.00042   0.00000   0.00261   0.00258   2.91519
   D71        2.91261   0.00097   0.00000   0.00376   0.00379   2.91639
   D72       -1.27618  -0.00006   0.00000   0.00067   0.00066  -1.27552
   D73        0.81821  -0.00062   0.00000  -0.00101  -0.00104   0.81717
         Item               Value     Threshold  Converged?
 Maximum Force            0.121123     0.000450     NO 
 RMS     Force            0.017452     0.000300     NO 
 Maximum Displacement     0.709679     0.001800     NO 
 RMS     Displacement     0.230563     0.001200     NO 
 Predicted change in Energy=-5.085219D-02
 GradGradGradGradGradGradGradGradGradGradGradGradGradGradGradGradGradGrad

                          Input orientation:                          
 ---------------------------------------------------------------------
 Center     Atomic      Atomic             Coordinates (Angstroms)
 Number     Number       Type             X           Y           Z
 ---------------------------------------------------------------------
      1          6           0       -5.170067   -2.473549    0.001792
      2          6           0       -3.788001   -2.318786    0.001761
      3          6           0       -3.226974   -1.043203    0.001710
      4          6           0       -4.053797    0.076461    0.000644
      5          6           0       -5.434816   -0.078564    0.000263
      6          6           0       -5.993472   -1.353264    0.001178
      7          1           0       -5.605930   -3.469592    0.002212
      8          1           0       -3.149026   -3.197668    0.002923
      9          1           0       -3.613375    1.069598    0.000560
     10          1           0       -6.078911    0.797213   -0.000588
     11          1           0       -7.074068   -1.473438    0.001054
     12          6           0       -1.720407   -0.853137    0.002422
     13          8           0       -1.286958    0.303865    0.002368
     14          6           0       -0.841874   -2.129425    0.003176
     15          1           0       -1.113395   -2.691753    0.877288
     16          1           0       -1.112784   -2.692251   -0.870742
     17          6           0        0.704984   -2.024390    0.003746
     18          8           0        1.340401   -0.964843    0.003657
     19          6           0        1.491008   -3.341893    0.004784
     20          6           0        3.000559   -3.038449    0.005296
     21          1           0        3.261594   -2.471079    0.878616
     22          1           0        3.548966   -3.962872    0.005983
     23          1           0        3.262465   -2.471885   -0.868270
     24          6           0        1.127203   -4.153353    1.268387
     25          1           0        0.159252   -4.606277    1.154418
     26          1           0        1.857425   -4.925601    1.422630
     27          1           0        1.112462   -3.509786    2.129390
     28          6           0        1.129135   -4.154479   -1.258107
     29          1           0        1.165546   -3.522187   -2.126774
     30          1           0        1.830588   -4.958382   -1.381568
     31          1           0        0.140323   -4.565342   -1.166151
 ---------------------------------------------------------------------
                    Distance matrix (angstroms):
                    1          2          3          4          5
     1  C    0.000000
     2  C    1.390704   0.000000
     3  C    2.412778   1.393508   0.000000
     4  C    2.783632   2.409950   1.391864   0.000000
     5  C    2.409574   2.780395   2.409377   1.389693   0.000000
     6  C    1.390336   2.407557   2.783819   2.409658   1.391746
     7  H    1.087235   2.151562   3.398058   3.870867   3.395343
     8  H    2.146848   1.086612   2.155875   3.396843   3.866995
     9  H    3.870036   3.392881   2.147844   1.086413   2.153119
    10  H    3.394685   3.867522   3.394213   2.149551   1.087127
    11  H    2.150684   3.393059   3.871077   3.394734   2.152399
    12  C    3.811284   2.534378   1.518508   2.511746   3.794312
    13  O    4.774156   3.624020   2.361833   2.776170   4.165452
    14  C    4.341852   2.952207   2.620798   3.896459   5.030025
    15  H    4.155802   2.838867   2.819852   4.132491   5.125681
    16  H    4.155802   2.838578   2.819633   4.132147   5.125424
    17  C    5.892196   4.502620   4.052533   5.201883   6.440761
    18  O    6.682992   5.304119   4.568047   5.493787   6.832940
    19  C    6.717436   5.377238   5.248174   6.513834   7.656133
    20  C    8.190131   6.826600   6.539356   7.711461   8.939602
    21  H    8.477130   7.105551   6.701440   7.795880   9.062184
    22  H    8.845317   7.518918   7.378200   8.609196   9.787554
    23  H    8.477299   7.105594   6.701553   7.795946   9.062286
    24  C    6.639398   5.397148   5.498760   6.807442   7.827652
    25  H    5.854803   4.705533   5.048837   6.403828   7.288749
    26  H    7.577399   6.378494   6.553101   7.873069   8.870946
    27  H    6.713467   5.473558   5.426026   6.639501   7.692420
[...]
 Alpha virt. eigenvalues --    0.86352   0.87479   0.88046   0.89242   0.89303
 Alpha virt. eigenvalues --    0.90500   0.91236   0.91942   0.92029   0.94800
 Alpha virt. eigenvalues --    0.95046   0.97796   0.99171   1.01700   1.06327
 Alpha virt. eigenvalues --    1.07325   1.09245   1.11181   1.11626   1.12715
 Alpha virt. eigenvalues --    1.14484   1.16397   1.19138   1.23071   1.24582
 Alpha virt. eigenvalues --    1.25514   1.28154   1.30037   1.32610   1.34387
 Alpha virt. eigenvalues --    1.39698   1.43463   1.46429   1.51229   1.53005
 Alpha virt. eigenvalues --    1.92891   1.98377   2.54751   2.58512   2.59556
 Alpha virt. eigenvalues --    2.59844   2.61110   2.62681   2.63366   2.64962
 Alpha virt. eigenvalues --    2.65613   2.66435   2.67848   2.68321   2.69121
 Alpha virt. eigenvalues --    2.70178   2.71049   2.85769   2.90297   2.92637
 Alpha virt. eigenvalues --    2.94813   3.00268   3.01239   3.03982   3.06002
 Alpha virt. eigenvalues --    3.11195   3.11951   3.15280   3.21458   3.21969
 Alpha virt. eigenvalues --    3.23272   3.23986   3.27008   3.29131   3.29669
 Alpha virt. eigenvalues --    3.30307   3.31899   3.33345   3.35381   3.36894
 Alpha virt. eigenvalues --    3.39035   3.40915   3.43101   3.43625   3.50414
 Alpha virt. eigenvalues --    3.51995   3.54069   3.55229   3.57261   3.59351
 Alpha virt. eigenvalues --    3.60466   3.63648   3.66331   3.69309   3.70351
 Alpha virt. eigenvalues --    3.73178   3.85771   5.44095   5.45504   5.50952
 Alpha virt. eigenvalues --    5.53374   5.54577   5.59537  24.24973  24.45196
 Alpha virt. eigenvalues --   24.48716  24.49529  24.59153  24.63199  24.67030
 Alpha virt. eigenvalues --   24.70059  24.77124  24.78555  24.79395  24.82340
 Alpha virt. eigenvalues --   25.03846  51.60271  51.61206
          Condensed to atoms (all electrons):
              1          2          3          4          5          6
     1  C    5.065523   0.461449  -0.059007  -0.032827  -0.070503   0.495831
     2  C    0.461449   5.057861   0.420863  -0.083028  -0.034079  -0.090403
     3  C   -0.059007   0.420863   5.740691   0.468386  -0.061535  -0.012283
     4  C   -0.032827  -0.083028   0.468386   5.049087   0.444415  -0.082228
     5  C   -0.070503  -0.034079  -0.061535   0.444415   5.088461   0.481509
     6  C    0.495831  -0.090403  -0.012283  -0.082228   0.481509   4.989630
     7  H    0.398816  -0.036709   0.005891  -0.000217   0.005644  -0.038354
     8  H   -0.033369   0.393628  -0.045689   0.004238  -0.000355   0.005231
     9  H   -0.000727   0.004850  -0.042966   0.399651  -0.040713   0.004936
    10  H    0.005925  -0.000221   0.006052  -0.038035   0.400779  -0.040651
    11  H   -0.041769   0.007873  -0.001476   0.007286  -0.041820   0.400398
    12  C    0.006740  -0.026131   0.092663  -0.060127   0.009691   0.001396
    13  O   -0.000213   0.004538  -0.148382   0.008625   0.000511   0.000041
    14  C   -0.001140   0.014525  -0.181913   0.012760  -0.000676   0.000154
    15  H    0.000233  -0.000388  -0.000718  -0.000440   0.000022  -0.000033
    16  H    0.000259  -0.001844   0.002964  -0.000201   0.000008  -0.000034
    17  C   -0.000010  -0.000181   0.006565  -0.000281   0.000014   0.000000
    18  O    0.000000   0.000015  -0.000773   0.000006   0.000000   0.000000
    19  C    0.000001   0.000007  -0.000856   0.000016   0.000000   0.000000
    20  C    0.000000   0.000000   0.000021  -0.000001   0.000000   0.000000
    21  H    0.000000   0.000000   0.000024  -0.000001   0.000000   0.000000
    22  H    0.000000   0.000000  -0.000001   0.000000   0.000000   0.000000
    23  H    0.000000   0.000000   0.000003   0.000000   0.000000   0.000000
    24  C    0.000000   0.000031  -0.000356  -0.000017   0.000000   0.000000
    25  H   -0.000001  -0.000003  -0.000182   0.000013   0.000001  -0.000001
    26  H    0.000000  -0.000001  -0.000009   0.000000   0.000000   0.000000
    27  H    0.000001  -0.000036   0.000189   0.000015   0.000001   0.000000
    28  C    0.000000   0.000009  -0.000012   0.000000   0.000000   0.000000
    29  H    0.000000  -0.000001   0.000005   0.000000   0.000000   0.000000
    30  H    0.000000   0.000000  -0.000001   0.000000   0.000000   0.000000
    31  H    0.000000  -0.000009   0.000004   0.000000   0.000000   0.000000
              7          8          9         10         11         12
     1  C    0.398816  -0.033369  -0.000727   0.005925  -0.041769   0.006740
     2  C   -0.036709   0.393628   0.004850  -0.000221   0.007873  -0.026131
     3  C    0.005891  -0.045689  -0.042966   0.006052  -0.001476   0.092663
     4  C   -0.000217   0.004238   0.399651  -0.038035   0.007286  -0.060127
     5  C    0.005644  -0.000355  -0.040713   0.400779  -0.041820   0.009691
     6  C   -0.038354   0.005231   0.004936  -0.040651   0.400398   0.001396
     7  H    0.503466  -0.004114   0.000015  -0.000204  -0.004267  -0.000329
     8  H   -0.004114   0.493112  -0.000213   0.000021  -0.000173  -0.004597
     9  H    0.000015  -0.000213   0.450491  -0.003718  -0.000110  -0.002497
    10  H   -0.000204   0.000021  -0.003718   0.500842  -0.004333  -0.000459
    11  H   -0.004267  -0.000173  -0.000110  -0.004333   0.504906  -0.000021
    12  C   -0.000329  -0.004597  -0.002497  -0.000459  -0.000021   4.942185
    13  O    0.000001   0.000140   0.014049  -0.000044   0.000001   0.616636
    14  C    0.000012   0.008060   0.002447  -0.000001   0.000001  -0.062035
    15  H    0.000004  -0.001266  -0.000093   0.000001   0.000000  -0.020748
    16  H    0.000011  -0.000230  -0.000073   0.000001   0.000000  -0.023675
    17  C    0.000001  -0.000164  -0.000114   0.000000   0.000000  -0.031102
    18  O    0.000000  -0.000092  -0.000006   0.000000   0.000000   0.007330
    19  C    0.000000  -0.000106  -0.000010   0.000000   0.000000   0.010101
    20  C    0.000000   0.000000   0.000000   0.000000   0.000000  -0.000308
    21  H    0.000000   0.000000  -0.000001   0.000000   0.000000   0.000243
    22  H    0.000000   0.000000   0.000000   0.000000   0.000000   0.000006
    23  H    0.000000   0.000000   0.000000   0.000000   0.000000  -0.000036
    24  C    0.000000   0.000021   0.000005   0.000000   0.000000  -0.003225
    25  H    0.000000  -0.000025  -0.000005   0.000000   0.000000  -0.002088
    26  H    0.000000  -0.000001  -0.000001   0.000000   0.000000   0.000243
    27  H    0.000000  -0.000001   0.000037   0.000000   0.000000   0.000225
    28  C    0.000000   0.000006   0.000000   0.000000   0.000000   0.001069
    29  H    0.000000   0.000002   0.000000   0.000000   0.000000  -0.000031
    30  H    0.000000  -0.000001   0.000000   0.000000   0.000000  -0.000031
    31  H    0.000000  -0.000013   0.000000   0.000000   0.000000   0.000075
             13         14         15         16         17         18
     1  C   -0.000213  -0.001140   0.000233   0.000259  -0.000010   0.000000
     2  C    0.004538   0.014525  -0.000388  -0.001844  -0.000181   0.000015
     3  C   -0.148382  -0.181913  -0.000718   0.002964   0.006565  -0.000773
     4  C    0.008625   0.012760  -0.000440  -0.000201  -0.000281   0.000006
     5  C    0.000511  -0.000676   0.000022   0.000008   0.000014   0.000000
     6  C    0.000041   0.000154  -0.000033  -0.000034   0.000000   0.000000
     7  H    0.000001   0.000012   0.000004   0.000011   0.000001   0.000000
     8  H    0.000140   0.008060  -0.001266  -0.000230  -0.000164  -0.000092
     9  H    0.014049   0.002447  -0.000093  -0.000073  -0.000114  -0.000006
    10  H   -0.000044  -0.000001   0.000001   0.000001   0.000000   0.000000
    11  H    0.000001   0.000001   0.000000   0.000000   0.000000   0.000000
    12  C    0.616636  -0.062035  -0.020748  -0.023675  -0.031102   0.007330
    13  O    8.125327  -0.158212   0.001546   0.002184   0.025707  -0.001011
    14  C   -0.158212   6.646808   0.333248   0.358213   0.018681  -0.138609
    15  H    0.001546   0.333248   0.483406  -0.015312  -0.029599   0.003202
    16  H    0.002184   0.358213  -0.015312   0.447811  -0.042585   0.012624
    17  C    0.025707   0.018681  -0.029599  -0.042585   5.132571   0.567313
    18  O   -0.001011  -0.138609   0.003202   0.012624   0.567313   8.125027
    19  C   -0.000359  -0.199636   0.016540   0.007490   0.006075  -0.121630
    20  C    0.000027   0.008254   0.000060  -0.000307  -0.092857   0.009750
    21  H    0.000711  -0.000441  -0.000014  -0.000018  -0.005403   0.001547
    22  H   -0.000007  -0.000329   0.000018   0.000014   0.012010   0.000001
    23  H    0.000005   0.000905  -0.000072  -0.000031  -0.006700   0.007045
    24  C   -0.001465   0.006467  -0.005125  -0.000053  -0.069449   0.004056
    25  H    0.000097   0.003610   0.000759   0.000270  -0.007043  -0.000056
    26  H    0.000206  -0.001270   0.000122   0.000045   0.008923  -0.000241
    27  H    0.005261  -0.001503  -0.000168  -0.000111  -0.002168   0.000070
    28  C   -0.000016   0.007082  -0.000407  -0.001221  -0.113259   0.001943
    29  H    0.000002   0.000548  -0.000257  -0.000063   0.000389   0.003021
    30  H    0.000000  -0.000633   0.000255   0.000077   0.007437  -0.000330
    31  H    0.000004   0.002484   0.001427  -0.000132  -0.004853   0.000108
             19         20         21         22         23         24
     1  C    0.000001   0.000000   0.000000   0.000000   0.000000   0.000000
     2  C    0.000007   0.000000   0.000000   0.000000   0.000000   0.000031
     3  C   -0.000856   0.000021   0.000024  -0.000001   0.000003  -0.000356
     4  C    0.000016  -0.000001  -0.000001   0.000000   0.000000  -0.000017
     5  C    0.000000   0.000000   0.000000   0.000000   0.000000   0.000000
     6  C    0.000000   0.000000   0.000000   0.000000   0.000000   0.000000
     7  H    0.000000   0.000000   0.000000   0.000000   0.000000   0.000000
     8  H   -0.000106   0.000000   0.000000   0.000000   0.000000   0.000021
     9  H   -0.000010   0.000000  -0.000001   0.000000   0.000000   0.000005
    10  H    0.000000   0.000000   0.000000   0.000000   0.000000   0.000000
    11  H    0.000000   0.000000   0.000000   0.000000   0.000000   0.000000
    12  C    0.010101  -0.000308   0.000243   0.000006  -0.000036  -0.003225
    13  O   -0.000359   0.000027   0.000711  -0.000007   0.000005  -0.001465
    14  C   -0.199636   0.008254  -0.000441  -0.000329   0.000905   0.006467
    15  H    0.016540   0.000060  -0.000014   0.000018  -0.000072  -0.005125
    16  H    0.007490  -0.000307  -0.000018   0.000014  -0.000031  -0.000053
    17  C    0.006075  -0.092857  -0.005403   0.012010  -0.006700  -0.069449
    18  O   -0.121630   0.009750   0.001547   0.000001   0.007045   0.004056
    19  C    6.389721   0.213615  -0.041563  -0.053172  -0.038655   0.152223
    20  C    0.213615   5.332247   0.391590   0.391401   0.387446  -0.105628
    21  H   -0.041563   0.391590   0.512068  -0.029194  -0.022825  -0.003243
    22  H   -0.053172   0.391401  -0.029194   0.555831  -0.029191  -0.005720
    23  H   -0.038655   0.387446  -0.022825  -0.029191   0.500797   0.007679
    24  C    0.152223  -0.105628  -0.003243  -0.005720   0.007679   5.451964
    25  H   -0.042755   0.007895  -0.000103  -0.000067  -0.000301   0.379129
    26  H   -0.040090  -0.004529  -0.000291   0.002694  -0.000132   0.381787
    27  H   -0.042283  -0.001992   0.002668  -0.000362  -0.000091   0.390161
    28  C    0.215179  -0.099892   0.007810  -0.005685  -0.002653  -0.106074
    29  H   -0.047465  -0.002576  -0.000186  -0.000564   0.002884   0.008639
    30  H   -0.040433  -0.004463  -0.000103   0.002316  -0.000371  -0.005482
    31  H   -0.043822   0.007875  -0.000308  -0.000134  -0.000085  -0.003214
             25         26         27         28         29         30
     1  C   -0.000001   0.000000   0.000001   0.000000   0.000000   0.000000
     2  C   -0.000003  -0.000001  -0.000036   0.000009  -0.000001   0.000000
     3  C   -0.000182  -0.000009   0.000189  -0.000012   0.000005  -0.000001
     4  C    0.000013   0.000000   0.000015   0.000000   0.000000   0.000000
     5  C    0.000001   0.000000   0.000001   0.000000   0.000000   0.000000
     6  C   -0.000001   0.000000   0.000000   0.000000   0.000000   0.000000
     7  H    0.000000   0.000000   0.000000   0.000000   0.000000   0.000000
     8  H   -0.000025  -0.000001  -0.000001   0.000006   0.000002  -0.000001
     9  H   -0.000005  -0.000001   0.000037   0.000000   0.000000   0.000000
    10  H    0.000000   0.000000   0.000000   0.000000   0.000000   0.000000
    11  H    0.000000   0.000000   0.000000   0.000000   0.000000   0.000000
    12  C   -0.002088   0.000243   0.000225   0.001069  -0.000031  -0.000031
    13  O    0.000097   0.000206   0.005261  -0.000016   0.000002   0.000000
    14  C    0.003610  -0.001270  -0.001503   0.007082   0.000548  -0.000633
    15  H    0.000759   0.000122  -0.000168  -0.000407  -0.000257   0.000255
    16  H    0.000270   0.000045  -0.000111  -0.001221  -0.000063   0.000077
    17  C   -0.007043   0.008923  -0.002168  -0.113259   0.000389   0.007437
    18  O   -0.000056  -0.000241   0.000070   0.001943   0.003021  -0.000330
    19  C   -0.042755  -0.040090  -0.042283   0.215179  -0.047465  -0.040433
    20  C    0.007895  -0.004529  -0.001992  -0.099892  -0.002576  -0.004463
    21  H   -0.000103  -0.000291   0.002668   0.007810  -0.000186  -0.000103
    22  H   -0.000067   0.002694  -0.000362  -0.005685  -0.000564   0.002316
    23  H   -0.000301  -0.000132  -0.000091  -0.002653   0.002884  -0.000371
    24  C    0.379129   0.381787   0.390161  -0.106074   0.008639  -0.005482
    25  H    0.560367  -0.029387  -0.025202  -0.002281  -0.000231  -0.000239
    26  H   -0.029387   0.535970  -0.024835  -0.006532  -0.000211   0.004046
    27  H   -0.025202  -0.024835   0.476254   0.006844  -0.000239  -0.000107
    28  C   -0.002281  -0.006532   0.006844   5.410865   0.385676   0.391636
    29  H   -0.000231  -0.000211  -0.000239   0.385676   0.514116  -0.025027
    30  H   -0.000239   0.004046  -0.000107   0.391636  -0.025027   0.513813
    31  H    0.002016  -0.000217  -0.000160   0.378824  -0.027201  -0.027308
             31
     1  C    0.000000
     2  C   -0.000009
     3  C    0.000004
     4  C    0.000000
     5  C    0.000000
     6  C    0.000000
     7  H    0.000000
     8  H   -0.000013
     9  H    0.000000
    10  H    0.000000
    11  H    0.000000
    12  C    0.000075
    13  O    0.000004
    14  C    0.002484
    15  H    0.001427
    16  H   -0.000132
    17  C   -0.004853
    18  O    0.000108
    19  C   -0.043822
    20  C    0.007875
    21  H   -0.000308
    22  H   -0.000134
    23  H   -0.000085
    24  C   -0.003214
    25  H    0.002016
    26  H   -0.000217
    27  H   -0.000160
    28  C    0.378824
    29  H   -0.027201
    30  H   -0.027308
    31  H    0.550728
 Mulliken atomic charges:
              1
     1  C   -0.195212
     2  C   -0.092615
     3  C   -0.188163
     4  C   -0.097095
     5  C   -0.181375
     6  C   -0.115141
     7  H    0.170332
     8  H    0.185950
     9  H    0.214766
    10  H    0.174046
    11  H    0.173505
    12  C    0.548837
    13  O   -0.495907
    14  C   -0.677861
    15  H    0.233797
    16  H    0.253919
    17  C    0.620082
    18  O   -0.480309
    19  C   -0.298135
    20  C   -0.437628
    21  H    0.187032
    22  H    0.160134
    23  H    0.194380
    24  C   -0.473114
    25  H    0.155813
    26  H    0.173710
    27  H    0.217535
    28  C   -0.468912
    29  H    0.188768
    30  H    0.184948
    31  H    0.163912
 Sum of Mulliken atomic charges =   0.00000
 Mulliken charges with hydrogens summed into heavy atoms:
              1
     1  C   -0.024880
     2  C    0.093335
     3  C   -0.188163
     4  C    0.117670
     5  C   -0.007329
     6  C    0.058364
    12  C    0.548837
    13  O   -0.495907
    14  C   -0.190145
    17  C    0.620082
    18  O   -0.480309
    19  C   -0.298135
    20  C    0.103918
    24  C    0.073944
    28  C    0.068716
 Sum of Mulliken charges with hydrogens summed into heavy atoms =   0.00000
 Electronic spatial extent (au):  <R**2>=           4243.5083
 Charge=              0.0000 electrons
 Dipole moment (field-independent basis, Debye):
    X=             -2.7949    Y=              3.1467    Z=             -3.3434  Tot=              5.3751
 Quadrupole moment (field-independent basis, Debye-Ang):
   XX=            -79.0537   YY=            -89.4244   ZZ=           -101.7523
   XY=              1.0141   XZ=             -7.0162   YZ=              1.2302
 Traceless Quadrupole moment (field-independent basis, Debye-Ang):
   XX=             11.0231   YY=              0.6524   ZZ=            -11.6755
   XY=              1.0141   XZ=             -7.0162   YZ=              1.2302
 Octapole moment (field-independent basis, Debye-Ang**2):
  XXX=            -48.2732  YYY=              5.5571  ZZZ=             -8.5847  XYY=            -10.4300
  XXY=             -2.2027  XXZ=            -24.9468  XZZ=              1.5972  YZZ=             -2.1302
  YYZ=              1.7090  XYZ=             -0.1418
 Hexadecapole moment (field-independent basis, Debye-Ang**3):
 XXXX=          -4351.8588 YYYY=           -630.5568 ZZZZ=           -485.1270 XXXY=              7.1192
 XXXZ=             14.8448 YYYX=             -2.8769 YYYZ=              5.3482 ZZZX=            -34.3847
 ZZZY=             -1.4397 XXYY=           -842.5038 XXZZ=           -955.1411 YYZZ=           -186.3282
 XXYZ=              2.4177 YYXZ=             11.0082 ZZXY=              1.2736
 N-N= 9.601901294052D+02 E-N=-3.442084500914D+03  KE= 6.516285844772D+02
 1|1|UNPC-DESKTOP-K2VF0AK|FOpt|RHF|6-311G|C13H16O2|MELIH|27-Nov-2024|0|
 |# opt hf/6-311g geom=connectivity||Title Card Required||0,1|C,-5.3300
 676822,-2.0264688486,-0.5730171499|C,-3.9567597768,-2.1921123805,-0.66
 50418563|C,-3.0958942541,-1.3305702901,0.0095271729|C,-3.6326530859,-0
 .2981264714,0.7774363825|C,-5.0025078337,-0.1320904224,0.8685581419|C,
 -5.8535457071,-0.9971088773,0.1932352664|H,-5.982908684,-2.6937861543,
 -1.096082352|H,-3.5729387276,-2.9903481517,-1.2644009697|H,-2.96590175
 46,0.3604735079,1.2904194269|H,-5.4049573311,0.6642680096,1.4592167157
 |H,-6.9140634045,-0.8684758364,0.2631803403|C,-1.61688959,-1.465471731
 ,-0.0512007873|O,-0.8991179346,-0.6941708011,0.5646976691|C,-1.0099645
 686,-2.5739872272,-0.8826076317|H,-1.3343340589,-3.5275902333,-0.49176
 95102|H,-1.3779199839,-2.4910123654,-1.8949325091|C,0.5027060961,-2.48
 22484623,-0.9592625427|O,0.9873061563,-1.8334599701,-1.866815256|C,1.3
 820844737,-3.271112215,0.0068202012|C,2.7969358604,-2.675161975,0.0100
 336592|H,2.7832745276,-1.6556527237,0.3690854392|H,3.4369388563,-3.258
 0902117,0.6603358864|H,3.2216796286,-2.6700791031,-0.9810245446|C,0.82
 40756266,-3.2725085157,1.4402766564|H,-0.1596929262,-3.7204410733,1.50
 10866523|H,1.4801051783,-3.8531477211,2.0751718025|H,0.7640199378,-2.2
 71738472,1.837977958|C,1.4344307041,-4.7221764602,-0.52954161|H,1.8409
 204578,-4.749537219,-1.5313101507|H,2.0686717862,-5.3213939294,0.10975
 55674|H,0.455023984,-5.1849833151,-0.5457486683||Version=IA32W-G09RevA
 .02|State=1-A|HF=-651.2005057|RMSD=8.588e-009|RMSF=2.372e-006|Dipole=-
 1.5822379,-1.332091,0.4405402|Quadrupole=5.39107,-0.1298578,-5.2612122
 ,-6.246814,4.4410283,3.5868379|PG=C01 [X(C13H16O2)]||@


 THE RED LIGHT IS ALWAYS LONGER THAN THE GREEN LIGHT.

                     -- PETER'S THEORY OF RELATIVITY
 Job cpu time:  0 days  0 hours 49 minutes 14.0 seconds.
 File lengths (MBytes):  RWF=     42 Int=      0 D2E=      0 Chk=      5 Scr=      1
 Normal termination of Gaussian 09 at Wed Nov 27 22:12:48 2024.
