 Entering Link 1 = C:\G09W\l1.exe PID=     11612.
  
 Copyright (c) 1988,1990,1992,1993,1995,1998,2003,2009, Gaussian, Inc.
                  All Rights Reserved.
  
 This is part of the Gaussian(R) 09 program.  It is based on
 the Gaussian(R) 03 system (copyright 2003, Gaussian, Inc.),
 the Gaussian(R) 98 system (copyright 1998, Gaussian, Inc.),
 the Gaussian(R) 94 system (copyright 1995, Gaussian, Inc.),
 the Gaussian 92(TM) system (copyright 1992, Gaussian, Inc.),
 the Gaussian 90(TM) system (copyright 1990, Gaussian, Inc.),
 the Gaussian 88(TM) system (copyright 1988, Gaussian, Inc.),
 the Gaussian 86(TM) system (copyright 1986, Carnegie Mellon
 University), and the Gaussian 82(TM) system (copyright 1983,
 Carnegie Mellon University). Gaussian is a federally registered
 trademark of Gaussian, Inc.
  
 This software contains proprietary and confidential information,
 including trade secrets, belonging to Gaussian, Inc.
  
 This software is provided under written license and may be
 used, copied, transmitted, or stored only in accord with that
 written license.
  
 The following legend is applicable only to US Government
 contracts under FAR:
  
                    RESTRICTED RIGHTS LEGEND
  
 Use, reproduction and disclosure by the US Government is
 subject to restrictions as set forth in subparagraphs (a)
 and (c) of the Commercial Computer Software - Restricted
 Rights clause in FAR 52.227-19.
  
 Gaussian, Inc.
 340 Quinnipiac St., Bldg. 40, Wallingford CT 06492
  
  
 ---------------------------------------------------------------
 Warning -- This program may not be used in any manner that
 competes with the business of Gaussian, Inc. or will provide
 assistance to any competitor of Gaussian, Inc.  The licensee
 of this program is prohibited from giving any competitor of
 Gaussian, Inc. access to this program.  By using this program,
 the user acknowledges that Gaussian, Inc. is engaged in the
 business of creating and licensing software in the field of
 computational chemistry and represents and warrants to the
 licensee that it is not a competitor of Gaussian, Inc. and that
 it will not use this program in any manner prohibited above.
 ---------------------------------------------------------------
  

 Cite this work as:
 Gaussian 09, Revision A.02,
 M. J. Frisch, G. W. Trucks, H. B. Schlegel, G. E. Scuseria, 
 M. A. Robb, J. R. Cheeseman, G. Scalmani, V. Barone, B. Mennucci, 
 G. A. Petersson, H. Nakatsuji, M. Caricato, X. Li, H. P. Hratchian, 
 A. F. Izmaylov, J. Bloino, G. Zheng, J. L. Sonnenberg, M. Hada, 
 M. Ehara, K. Toyota, R. Fukuda, J. Hasegawa, M. Ishida, T. Nakajima, 
 Y. Honda, O. Kitao, H. Nakai, T. Vreven, J. A. Montgomery, Jr., 
 J. E. Peralta, F. Ogliaro, M. Bearpark, J. J. Heyd, E. Brothers, 
 K. N. Kudin, V. N. Staroverov, R. Kobayashi, J. Normand, 
 K. Raghavachari, A. Rendell, J. C. Burant, S. S. Iyengar, J. Tomasi, 
 M. Cossi, N. Rega, J. M. Millam, M. Klene, J. E. Knox, J. B. Cross, 
 V. Bakken, C. Adamo, J. Jaramillo, R. Gomperts, R. E. Stratmann, 
 O. Yazyev, A. J. Austin, R. Cammi, C. Pomelli, J. W. Ochterski, 
 R. L. Martin, K. Morokuma, V. G. Zakrzewski, G. A. Voth, 
 P. Salvador, J. J. Dannenberg, S. Dapprich, A. D. Daniels, 
 O. Farkas, J. B. Foresman, J. V. Ortiz, J. Cioslowski, 
 and D. J. Fox, Gaussian, Inc., Wallingford CT, 2009.
 
 ******************************************
 Gaussian 09:  IA32W-G09RevA.02 11-Jun-2009
                27-Nov-2024 
 ******************************************
 %chk=C:\G09W\Midterm1\K6opt.chk
 ---------------------------------
 # opt hf/6-311g geom=connectivity
 ---------------------------------
 1/18=20,19=15,38=1,57=2/1,3;
 2/9=110,12=2,17=6,18=5,40=1/2;
 3/5=4,6=6,11=9,16=1,25=1,30=1,71=1/1,2,3;
 4//1;
 5/5=2,38=5/2;
 6/7=2,8=2,9=2,10=2,28=1/1;
 7//1,2,3,16;
 1/18=20,19=15/3(2);
 2/9=110/2;
 99//99;
 2/9=110/2;
 3/5=4,6=6,11=9,16=1,25=1,30=1,71=1/1,2,3;
 4/5=5,16=3/1;
 5/5=2,38=5/2;
 7//1,2,3,16;
 1/18=20,19=15/3(-5);
 2/9=110/2;
 6/7=2,8=2,9=2,10=2,19=2,28=1/1;
 99/9=1/99;
 -------------------
 Title Card Required
 -------------------
 Symbolic Z-matrix:
 Charge =  0 Multiplicity = 1
 C                    -3.76128  -2.48255   0.00168 
 C                    -2.36612  -2.48255   0.00168 
 C                    -1.66858  -1.2748    0.00168 
 C                    -2.36624  -0.06629   0.00048 
 C                    -3.76106  -0.06637   0. 
 C                    -4.45866  -1.27458   0.001 
 H                    -4.31104  -3.43487   0.00213 
 H                    -1.81661  -3.43507   0.00299 
 H                    -1.81604   0.88585   0.00042 
 H                    -4.31118   0.88591  -0.00095 
 H                    -5.55827  -1.27439   0.00082 
 C                    -0.12858  -1.27469   0.00257 
 C                     0.63887  -2.60984   0.00345 
 H                     0.54458  -3.07607  -0.955 
 C                     2.12652  -2.34662   0.30213 
 O                     2.89783  -3.30401   0.57056 
 C                     2.67214  -0.90682   0.27219 
 C                     1.50569   0.08029   0.08087 
 H                     1.87473   1.0832    0.13452 
 H                     1.05363  -0.08275  -0.87514 
 H                     0.77826  -0.07373   0.85031 
 C                     3.66646  -0.75882  -0.89443 
 H                     3.65993  -1.65166  -1.48409 
 H                     3.38033   0.07301  -1.50359 
 H                     4.64999  -0.59498  -0.50619 
 C                     3.38988  -0.60214   1.60021 
 H                     2.70581  -0.73032   2.41293 
 H                     4.21623  -1.27112   1.72067 
 H                     3.74629   0.4067    1.58973 
 O                     0.50485  -0.18734   0.00257 
 H                     0.23277  -3.25416   0.755 
 

 GradGradGradGradGradGradGradGradGradGradGradGradGradGradGradGradGradGrad
 Berny optimization.
 Initialization pass.
                           ----------------------------
                           !    Initial Parameters    !
                           ! (Angstroms and Degrees)  !
 --------------------------                            --------------------------
 ! Name  Definition              Value          Derivative Info.                !
 --------------------------------------------------------------------------------
 ! R1    R(1,2)                  1.3952         estimate D2E/DX2                !
 ! R2    R(1,6)                  1.3948         estimate D2E/DX2                !
 ! R3    R(1,7)                  1.0996         estimate D2E/DX2                !
 ! R4    R(2,3)                  1.3947         estimate D2E/DX2                !
 ! R5    R(2,8)                  1.0997         estimate D2E/DX2                !
 ! R6    R(3,4)                  1.3954         estimate D2E/DX2                !
 ! R7    R(3,12)                 1.54           estimate D2E/DX2                !
 ! R8    R(4,5)                  1.3948         estimate D2E/DX2                !
 ! R9    R(4,9)                  1.0997         estimate D2E/DX2                !
 ! R10   R(5,6)                  1.3951         estimate D2E/DX2                !
 ! R11   R(5,10)                 1.0998         estimate D2E/DX2                !
 ! R12   R(6,11)                 1.0996         estimate D2E/DX2                !
 ! R13   R(12,13)                1.54           estimate D2E/DX2                !
 ! R14   R(12,30)                1.2584         estimate D2E/DX2                !
 ! R15   R(13,14)                1.07           estimate D2E/DX2                !
 ! R16   R(13,15)                1.54           estimate D2E/DX2                !
 ! R17   R(13,31)                1.07           estimate D2E/DX2                !
 ! R18   R(15,16)                1.2584         estimate D2E/DX2                !
 ! R19   R(15,17)                1.54           estimate D2E/DX2                !
 ! R20   R(17,18)                1.54           estimate D2E/DX2                !
 ! R21   R(17,22)                1.54           estimate D2E/DX2                !
 ! R22   R(17,26)                1.54           estimate D2E/DX2                !
 ! R23   R(18,19)                1.07           estimate D2E/DX2                !
 ! R24   R(18,20)                1.07           estimate D2E/DX2                !
 ! R25   R(18,21)                1.07           estimate D2E/DX2                !
 ! R26   R(18,30)                1.039          estimate D2E/DX2                !
 ! R27   R(20,30)                1.0404         estimate D2E/DX2                !
 ! R28   R(21,30)                0.898          estimate D2E/DX2                !
 ! R29   R(22,23)                1.07           estimate D2E/DX2                !
 ! R30   R(22,24)                1.07           estimate D2E/DX2                !
 ! R31   R(22,25)                1.07           estimate D2E/DX2                !
 ! R32   R(26,27)                1.07           estimate D2E/DX2                !
 ! R33   R(26,28)                1.07           estimate D2E/DX2                !
 ! R34   R(26,29)                1.07           estimate D2E/DX2                !
 ! A1    A(2,1,6)              119.9985         estimate D2E/DX2                !
 ! A2    A(2,1,7)              119.9972         estimate D2E/DX2                !
 ! A3    A(6,1,7)              120.0043         estimate D2E/DX2                !
 ! A4    A(1,2,3)              120.0086         estimate D2E/DX2                !
 ! A5    A(1,2,8)              119.9808         estimate D2E/DX2                !
 ! A6    A(3,2,8)              120.0106         estimate D2E/DX2                !
 ! A7    A(2,3,4)              119.9942         estimate D2E/DX2                !
 ! A8    A(2,3,12)             120.0128         estimate D2E/DX2                !
 ! A9    A(4,3,12)             119.993          estimate D2E/DX2                !
 ! A10   A(3,4,5)              119.994          estimate D2E/DX2                !
 ! A11   A(3,4,9)              119.9811         estimate D2E/DX2                !
 ! A12   A(5,4,9)              120.0249         estimate D2E/DX2                !
 ! A13   A(4,5,6)              120.0047         estimate D2E/DX2                !
 ! A14   A(4,5,10)             120.0113         estimate D2E/DX2                !
 ! A15   A(6,5,10)             119.984          estimate D2E/DX2                !
 ! A16   A(1,6,5)              120.0            estimate D2E/DX2                !
 ! A17   A(1,6,11)             120.008          estimate D2E/DX2                !
 ! A18   A(5,6,11)             119.992          estimate D2E/DX2                !
 ! A19   A(3,12,13)            119.8865         estimate D2E/DX2                !
 ! A20   A(3,12,30)            120.2269         estimate D2E/DX2                !
 ! A21   A(13,12,30)           119.8865         estimate D2E/DX2                !
 ! A22   A(12,13,14)           109.4712         estimate D2E/DX2                !
 ! A23   A(12,13,15)           109.4712         estimate D2E/DX2                !
 ! A24   A(12,13,31)           109.4712         estimate D2E/DX2                !
 ! A25   A(14,13,15)           109.4712         estimate D2E/DX2                !
 ! A26   A(14,13,31)           109.4712         estimate D2E/DX2                !
 ! A27   A(15,13,31)           109.4712         estimate D2E/DX2                !
 ! A28   A(13,15,16)           120.2269         estimate D2E/DX2                !
 ! A29   A(13,15,17)           119.8865         estimate D2E/DX2                !
 ! A30   A(16,15,17)           119.8865         estimate D2E/DX2                !
 ! A31   A(15,17,18)           109.4712         estimate D2E/DX2                !
 ! A32   A(15,17,22)           109.4712         estimate D2E/DX2                !
 ! A33   A(15,17,26)           109.4712         estimate D2E/DX2                !
 ! A34   A(18,17,22)           109.4713         estimate D2E/DX2                !
 ! A35   A(18,17,26)           109.4712         estimate D2E/DX2                !
 ! A36   A(22,17,26)           109.4712         estimate D2E/DX2                !
 ! A37   A(17,18,19)           109.4712         estimate D2E/DX2                !
 ! A38   A(17,18,20)           109.4712         estimate D2E/DX2                !
 ! A39   A(17,18,21)           109.4712         estimate D2E/DX2                !
 ! A40   A(17,18,30)           125.0222         estimate D2E/DX2                !
 ! A41   A(19,18,20)           109.4713         estimate D2E/DX2                !
 ! A42   A(19,18,21)           109.4712         estimate D2E/DX2                !
 ! A43   A(19,18,30)           125.2721         estimate D2E/DX2                !
 ! A44   A(20,18,21)           109.4712         estimate D2E/DX2                !
 ! A45   A(17,22,23)           109.4712         estimate D2E/DX2                !
 ! A46   A(17,22,24)           109.4712         estimate D2E/DX2                !
 ! A47   A(17,22,25)           109.4712         estimate D2E/DX2                !
 ! A48   A(23,22,24)           109.4713         estimate D2E/DX2                !
 ! A49   A(23,22,25)           109.4712         estimate D2E/DX2                !
 ! A50   A(24,22,25)           109.4712         estimate D2E/DX2                !
 ! A51   A(17,26,27)           109.4712         estimate D2E/DX2                !
 ! A52   A(17,26,28)           109.4712         estimate D2E/DX2                !
 ! A53   A(17,26,29)           109.4712         estimate D2E/DX2                !
 ! A54   A(27,26,28)           109.4713         estimate D2E/DX2                !
 ! A55   A(27,26,29)           109.4712         estimate D2E/DX2                !
 ! A56   A(28,26,29)           109.4712         estimate D2E/DX2                !
 ! A57   A(12,30,18)           135.0299         estimate D2E/DX2                !
 ! A58   A(12,30,20)           110.6318         estimate D2E/DX2                !
 ! A59   A(12,30,21)           105.2241         estimate D2E/DX2                !
 ! A60   A(20,30,21)           128.5436         estimate D2E/DX2                !
 ! D1    D(6,1,2,3)              0.0323         estimate D2E/DX2                !
 ! D2    D(6,1,2,8)            179.9532         estimate D2E/DX2                !
 ! D3    D(7,1,2,3)           -179.9729         estimate D2E/DX2                !
 ! D4    D(7,1,2,8)             -0.052          estimate D2E/DX2                !
 ! D5    D(2,1,6,5)              0.0149         estimate D2E/DX2                !
 ! D6    D(2,1,6,11)           179.9892         estimate D2E/DX2                !
 ! D7    D(7,1,6,5)           -179.9798         estimate D2E/DX2                !
 ! D8    D(7,1,6,11)            -0.0056         estimate D2E/DX2                !
 ! D9    D(1,2,3,4)             -0.0568         estimate D2E/DX2                !
 ! D10   D(1,2,3,12)           179.9619         estimate D2E/DX2                !
 ! D11   D(8,2,3,4)           -179.9777         estimate D2E/DX2                !
 ! D12   D(8,2,3,12)             0.041          estimate D2E/DX2                !
 ! D13   D(2,3,4,5)              0.0341         estimate D2E/DX2                !
 ! D14   D(2,3,4,9)           -179.9964         estimate D2E/DX2                !
 ! D15   D(12,3,4,5)          -179.9846         estimate D2E/DX2                !
 ! D16   D(12,3,4,9)            -0.0151         estimate D2E/DX2                !
 ! D17   D(2,3,12,13)            0.0            estimate D2E/DX2                !
 ! D18   D(2,3,12,30)          180.0            estimate D2E/DX2                !
 ! D19   D(4,3,12,13)         -179.9813         estimate D2E/DX2                !
 ! D20   D(4,3,12,30)            0.0187         estimate D2E/DX2                !
 ! D21   D(3,4,5,6)              0.0131         estimate D2E/DX2                !
 ! D22   D(3,4,5,10)          -179.9995         estimate D2E/DX2                !
 ! D23   D(9,4,5,6)           -179.9563         estimate D2E/DX2                !
 ! D24   D(9,4,5,10)             0.0311         estimate D2E/DX2                !
 ! D25   D(4,5,6,1)             -0.0376         estimate D2E/DX2                !
 ! D26   D(4,5,6,11)           179.9881         estimate D2E/DX2                !
 ! D27   D(10,5,6,1)           179.975          estimate D2E/DX2                !
 ! D28   D(10,5,6,11)            0.0007         estimate D2E/DX2                !
 ! D29   D(3,12,13,14)          71.84           estimate D2E/DX2                !
 ! D30   D(3,12,13,15)        -168.16           estimate D2E/DX2                !
 ! D31   D(3,12,13,31)         -48.16           estimate D2E/DX2                !
 ! D32   D(30,12,13,14)       -108.16           estimate D2E/DX2                !
 ! D33   D(30,12,13,15)         11.84           estimate D2E/DX2                !
 ! D34   D(30,12,13,31)        131.84           estimate D2E/DX2                !
 ! D35   D(3,12,30,18)         173.9164         estimate D2E/DX2                !
 ! D36   D(3,12,30,20)        -115.6158         estimate D2E/DX2                !
 ! D37   D(3,12,30,21)         101.965          estimate D2E/DX2                !
 ! D38   D(13,12,30,18)         -6.0836         estimate D2E/DX2                !
 ! D39   D(13,12,30,20)         64.3842         estimate D2E/DX2                !
 ! D40   D(13,12,30,21)        -78.035          estimate D2E/DX2                !
 ! D41   D(12,13,15,16)        168.1839         estimate D2E/DX2                !
 ! D42   D(12,13,15,17)        -11.8161         estimate D2E/DX2                !
 ! D43   D(14,13,15,16)        -71.8161         estimate D2E/DX2                !
 ! D44   D(14,13,15,17)        108.1839         estimate D2E/DX2                !
 ! D45   D(31,13,15,16)         48.1839         estimate D2E/DX2                !
 ! D46   D(31,13,15,17)       -131.8161         estimate D2E/DX2                !
 ! D47   D(13,15,17,18)          6.41           estimate D2E/DX2                !
 ! D48   D(13,15,17,22)       -113.59           estimate D2E/DX2                !
 ! D49   D(13,15,17,26)        126.41           estimate D2E/DX2                !
 ! D50   D(16,15,17,18)       -173.59           estimate D2E/DX2                !
 ! D51   D(16,15,17,22)         66.41           estimate D2E/DX2                !
 ! D52   D(16,15,17,26)        -53.59           estimate D2E/DX2                !
 ! D53   D(15,17,18,19)        175.73           estimate D2E/DX2                !
 ! D54   D(15,17,18,20)        -64.27           estimate D2E/DX2                !
 ! D55   D(15,17,18,21)         55.73           estimate D2E/DX2                !
 ! D56   D(15,17,18,30)          1.0588         estimate D2E/DX2                !
 ! D57   D(22,17,18,19)        -64.27           estimate D2E/DX2                !
 ! D58   D(22,17,18,20)         55.73           estimate D2E/DX2                !
 ! D59   D(22,17,18,21)        175.73           estimate D2E/DX2                !
 ! D60   D(22,17,18,30)        121.0588         estimate D2E/DX2                !
 ! D61   D(26,17,18,19)         55.73           estimate D2E/DX2                !
 ! D62   D(26,17,18,20)        175.73           estimate D2E/DX2                !
 ! D63   D(26,17,18,21)        -64.27           estimate D2E/DX2                !
 ! D64   D(26,17,18,30)       -118.9412         estimate D2E/DX2                !
 ! D65   D(15,17,22,23)          6.7659         estimate D2E/DX2                !
 ! D66   D(15,17,22,24)        126.766          estimate D2E/DX2                !
 ! D67   D(15,17,22,25)       -113.2341         estimate D2E/DX2                !
 ! D68   D(18,17,22,23)       -113.234          estimate D2E/DX2                !
 ! D69   D(18,17,22,24)          6.766          estimate D2E/DX2                !
 ! D70   D(18,17,22,25)        126.766          estimate D2E/DX2                !
 ! D71   D(26,17,22,23)        126.7659         estimate D2E/DX2                !
 ! D72   D(26,17,22,24)       -113.234          estimate D2E/DX2                !
 ! D73   D(26,17,22,25)          6.7659         estimate D2E/DX2                !
 ! D74   D(15,17,26,27)        -58.505          estimate D2E/DX2                !
 ! D75   D(15,17,26,28)         61.495          estimate D2E/DX2                !
 ! D76   D(15,17,26,29)       -178.505          estimate D2E/DX2                !
 ! D77   D(18,17,26,27)         61.4949         estimate D2E/DX2                !
 ! D78   D(18,17,26,28)       -178.505          estimate D2E/DX2                !
 ! D79   D(18,17,26,29)        -58.505          estimate D2E/DX2                !
 ! D80   D(22,17,26,27)       -178.505          estimate D2E/DX2                !
 ! D81   D(22,17,26,28)        -58.505          estimate D2E/DX2                !
 ! D82   D(22,17,26,29)         61.495          estimate D2E/DX2                !
 ! D83   D(17,18,30,12)         -1.3521         estimate D2E/DX2                !
 ! D84   D(19,18,30,12)       -175.1954         estimate D2E/DX2                !
 --------------------------------------------------------------------------------
 Trust Radius=3.00D-01 FncErr=1.00D-07 GrdErr=1.00D-07
 Number of steps in this run= 186 maximum allowed number of steps= 186.
 GradGradGradGradGradGradGradGradGradGradGradGradGradGradGradGradGradGrad

                          Input orientation:                          
 ---------------------------------------------------------------------
 Center     Atomic      Atomic             Coordinates (Angstroms)
 Number     Number       Type             X           Y           Z
 ---------------------------------------------------------------------
      1          6           0       -3.761281   -2.482554    0.001678
      2          6           0       -2.366121   -2.482554    0.001678
      3          6           0       -1.668583   -1.274803    0.001678
      4          6           0       -2.366237   -0.066294    0.000479
      5          6           0       -3.761062   -0.066372    0.000000
      6          6           0       -4.458663   -1.274578    0.000996
      7          1           0       -4.311040   -3.434871    0.002128
      8          1           0       -1.816613   -3.435067    0.002993
      9          1           0       -1.816037    0.885849    0.000420
     10          1           0       -4.311184    0.885909   -0.000953
     11          1           0       -5.558267   -1.274395    0.000816
     12          6           0       -0.128583   -1.274691    0.002566
     13          6           0        0.638871   -2.609836    0.003453
     14          1           0        0.544576   -3.076066   -0.955003
     15          6           0        2.126523   -2.346617    0.302128
     16          8           0        2.897830   -3.304007    0.570565
     17          6           0        2.672140   -0.906823    0.272195
     18          6           0        1.505691    0.080291    0.080874
     19          1           0        1.874726    1.083205    0.134521
     20          1           0        1.053630   -0.082755   -0.875136
     21          1           0        0.778264   -0.073725    0.850308
     22          6           0        3.666464   -0.758822   -0.894431
     23          1           0        3.659929   -1.651663   -1.484085
     24          1           0        3.380331    0.073015   -1.503591
     25          1           0        4.649993   -0.594985   -0.506194
     26          6           0        3.389882   -0.602145    1.600207
     27          1           0        2.705809   -0.730317    2.412929
     28          1           0        4.216234   -1.271122    1.720675
     29          1           0        3.746293    0.406697    1.589728
     30          8           0        0.504850   -0.187339    0.002569
     31          1           0        0.232769   -3.254159    0.755004
 ---------------------------------------------------------------------
                    Distance matrix (angstroms):
                    1          2          3          4          5
     1  C    0.000000
     2  C    1.395160   0.000000
     3  C    2.416205   1.394712   0.000000
     4  C    2.790065   2.416260   1.395427   0.000000
     5  C    2.416183   2.789946   2.416356   1.394825   0.000000
     6  C    1.394829   2.416183   2.790080   2.416236   1.395138
     7  H    1.099610   2.165553   3.412986   3.889675   3.413102
     8  H    2.165414   1.099655   2.165330   3.413316   3.889601
     9  H    3.889745   3.413024   2.165678   1.099680   2.165606
    10  H    3.413055   3.889707   3.413506   2.165528   1.099761
    11  H    2.165365   3.413128   3.889684   3.412999   2.165471
    12  C    3.828241   2.542737   1.540000   2.543093   3.828178
    13  C    4.401993   3.007687   2.665832   3.937041   5.082188
    14  H    4.450606   3.120841   3.009627   4.294706   5.339363
    15  C    5.897032   4.504730   3.954982   5.047351   6.320953
    16  O    6.733660   5.357947   5.029258   6.206302   7.426215
    17  C    6.629103   5.285847   4.364684   5.115228   6.493576
    18  C    5.857938   4.643853   3.452328   3.875536   5.269415
    19  H    6.670596   5.542297   4.258272   4.396029   5.753409
    20  H    5.450798   4.268786   3.098423   3.530221   4.893607
    21  H    5.208655   4.050899   2.854788   3.257322   4.618285
    22  C    7.677607   6.337692   5.434333   6.137910   7.513164
    23  H    7.613949   6.261880   5.544596   6.405622   7.732190
    24  H    7.733006   6.466720   5.438196   5.941774   7.299295
    25  H    8.635414   7.283317   6.375303   7.054340   8.442837
    26  C    7.565075   6.262811   5.347507   5.998264   7.347361
    27  H    7.120935   5.882937   5.024530   5.655661   6.934225
    28  H    8.250045   6.910131   6.130744   6.909385   8.249205
    29  H    8.199594   6.944874   5.888143   6.333440   7.688394
    30  O    4.844366   3.675661   2.430306   2.873638   4.267627
    31  H    4.137065   2.813735   2.846136   4.181701   5.165530
                    6          7          8          9         10
     6  C    0.000000
     7  H    2.165331   0.000000
     8  H    3.412938   2.494427   0.000000
     9  H    3.413344   4.989355   4.320917   0.000000
    10  H    2.165516   4.320781   4.989362   2.495147   0.000000
    11  H    1.099604   2.494641   4.320704   4.320988   2.494420
    12  C    4.330080   4.707369   2.741654   2.741430   4.707691
    13  C    5.269513   5.018197   2.590445   4.271580   6.059975
    14  H    5.402933   4.962040   2.573295   4.709787   6.339232
    15  C    6.678669   6.535787   4.101527   5.107214   7.210073
    16  O    7.652515   7.232431   4.750293   6.332496   8.357746
    17  C    7.145428   7.431606   5.158817   4.840585   7.214936
    18  C    6.116827   6.796832   4.837511   3.418958   5.872968
    19  H    6.759347   7.661216   5.835928   3.698467   6.190537
    20  H    5.707313   6.386388   4.499711   3.152741   5.521207
    21  H    5.439557   6.157736   4.330120   2.893698   5.248621
    22  C    8.190572   8.462010   6.166992   5.793403   8.194285
    23  H    8.261912   8.302108   5.948482   6.215217   8.495739
    24  H    8.095036   8.586596   6.448617   5.470374   7.878967
    25  H    9.148043   9.414003   7.081125   6.652749   9.096758
    26  C    8.037991   8.359569   6.138740   5.645798   8.005275
    27  H    7.579136   7.897009   5.794460   5.373945   7.594551
    28  H    8.843706   8.963794   6.635384   6.633256   8.962903
    29  H    8.524791   9.066352   6.944264   5.804740   8.226959
    30  O    5.081195   5.808550   3.992108   2.557001   4.934172
    31  H    5.147504   4.609303   2.190483   4.680456   6.193476
                   11         12         13         14         15
    11  H    0.000000
    12  C    5.429684   0.000000
    13  C    6.339395   1.540000   0.000000
    14  H    6.434617   2.148263   1.070000   0.000000
    15  C    7.765078   2.514809   1.540000   2.148263   0.000000
    16  O    8.714902   3.687808   2.430306   2.813738   1.258400
    17  C    8.243079   2.837618   2.665832   3.276913   1.540000
    18  C    7.193128   2.124373   2.827394   3.458233   2.514809
    19  H    7.799072   3.096825   3.896545   4.500655   3.443133
    20  H    6.775284   1.894386   2.707413   3.037338   2.768054
    21  H    6.504987   1.727239   2.677397   3.511098   2.698951
    22  C    9.282399   3.933587   3.660433   3.888377   2.514809
    23  H    9.344645   4.087182   3.501094   3.466162   2.454558
    24  H    9.163912   4.049358   4.121223   4.273075   3.269140
    25  H   10.243399   4.853414   4.517573   4.817846   3.176397
    26  C    9.114787   3.922292   3.761451   4.554685   2.514810
    27  H    8.626081   3.760316   3.689228   4.638582   2.720933
    28  H    9.924655   4.672188   4.187903   4.888573   2.745151
    29  H    9.587781   4.512296   4.612138   5.371805   3.444170
    30  O    6.159795   1.258400   2.426202   3.043561   2.716991
    31  H    6.166390   2.148263   1.070000   1.747303   2.148263
                   16         17         18         19         20
    16  O    0.000000
    17  C    2.426202   0.000000
    18  C    3.692062   1.540000   0.000000
    19  H    4.525981   2.148263   1.070000   0.000000
    20  H    3.983415   2.148263   1.070000   1.747303   0.000000
    21  H    3.873699   2.148263   1.070000   1.747303   1.747303
    22  C    3.035619   1.540000   2.514810   2.768055   2.698952
    23  H    2.744563   2.148263   3.176398   3.645042   3.102432
    24  H    3.992394   2.148263   2.454559   2.443510   2.415111
    25  H    3.401218   2.148263   3.269141   3.305895   3.651346
    26  C    2.932975   1.540000   2.514809   2.698951   3.443133
    27  H    3.170972   2.148263   2.745150   3.028317   3.736363
    28  H    2.682082   2.148263   3.444169   3.679864   4.260577
    29  H    3.940547   2.148263   2.720934   2.465372   3.683145
    30  O    3.970214   2.299457   1.038962   1.873033   1.040415
    31  H    2.671901   3.419594   3.632263   4.679075   3.659095
                   21         22         23         24         25
    21  H    0.000000
    22  C    3.443134   0.000000
    23  H    4.030294   1.070000   0.000000
    24  H    3.511856   1.070000   1.747303   0.000000
    25  H    4.135468   1.070000   1.747303   1.747303   0.000000
    26  C    2.768055   2.514809   3.269140   3.176397   2.454559
    27  H    2.566774   3.444169   4.116545   4.054560   3.509907
    28  H    3.743118   2.720933   3.274870   3.591842   2.367330
    29  H    3.096247   2.745151   3.700356   3.132714   2.492575
    30  O    0.897956   3.335717   3.782712   3.256485   4.196097
    31  H    3.228282   4.553856   4.396242   5.106710   5.307890
                   26         27         28         29         30
    26  C    0.000000
    27  H    1.070000   0.000000
    28  H    1.070000   1.747303   0.000000
    29  H    1.070000   1.747303   1.747303   0.000000
    30  O    3.323842   3.308910   4.230939   3.657719   0.000000
    31  H    4.208908   3.903130   4.553344   5.142323   3.169475
                   31
    31  H    0.000000
 Stoichiometry    C13H16O2
 Framework group  C1[X(C13H16O2)]
 Deg. of freedom    87
 Full point group                 C1      NOp   1
 Largest Abelian subgroup         C1      NOp   1
 Largest concise Abelian subgroup C1      NOp   1
                         Standard orientation:                         
 ---------------------------------------------------------------------
 Center     Atomic      Atomic             Coordinates (Angstroms)
 Number     Number       Type             X           Y           Z
 ---------------------------------------------------------------------
      1          6           0        3.848052    1.207942    0.018134
      2          6           0        2.454633    1.207218   -0.051547
      3          6           0        1.756613   -0.000245   -0.046778
      4          6           0        2.452102   -1.207780    0.026502
      5          6           0        3.845210   -1.206994    0.095686
      6          6           0        4.543244    0.000956    0.091899
      7          1           0        4.398169    2.160046    0.014811
      8          1           0        1.906813    2.158976   -0.108917
      9          1           0        1.901524   -2.159698    0.030189
     10          1           0        4.393626   -2.158508    0.153440
     11          1           0        5.641484    0.001338    0.146645
     12          6           0        0.218491   -0.001127   -0.122803
     13          6           0       -0.546554    1.332930   -0.204033
     14          1           0       -0.403993    1.767511   -1.171357
     15          6           0       -2.047558    1.078879    0.028440
     16          8           0       -2.830234    2.044161    0.226477
     17          6           0       -2.592613   -0.361405    0.018526
     18          6           0       -1.419172   -1.353658   -0.081822
     19          1           0       -1.791549   -2.354463   -0.013813
     20          1           0       -0.919754   -1.221832   -1.018894
     21          1           0       -0.730902   -1.174103    0.717517
     22          6           0       -3.527606   -0.548119   -1.190823
     23          1           0       -3.490634    0.324899   -1.808378
     24          1           0       -3.212344   -1.399345   -1.757324
     25          1           0       -4.529477   -0.699640   -0.847029
     26          6           0       -3.376115   -0.622720    1.318311
     27          1           0       -2.733336   -0.467596    2.159543
     28          1           0       -4.206701    0.049421    1.375351
     29          1           0       -3.732688   -1.631547    1.323134
     30          8           0       -0.415370   -1.088222   -0.118777
     31          1           0       -0.177765    2.001774    0.545328
 ---------------------------------------------------------------------
 Rotational constants (GHZ):      1.5734223      0.3187986      0.2825042
 Standard basis: 6-311G (5D, 7F)
 There are   243 symmetry adapted basis functions of A   symmetry.
 Integral buffers will be    262144 words long.
 Raffenetti 1 integral format.
 Two-electron integral symmetry is turned on.
   243 basis functions,   470 primitive gaussians,   243 cartesian basis functions
    55 alpha electrons       55 beta electrons
       nuclear repulsion energy      1002.4257212048 Hartrees.
 NAtoms=   31 NActive=   31 NUniq=   31 SFac= 7.50D-01 NAtFMM=   80 NAOKFM=F Big=F
 One-electron integrals computed using PRISM.
 NBasis=   243 RedAO= T  NBF=   243
 NBsUse=   243 1.00D-06 NBFU=   243
 Harris functional with IExCor=  205 diagonalized for initial guess.
 ExpMin= 1.03D-01 ExpMax= 8.59D+03 ExpMxC= 1.30D+03 IAcc=1 IRadAn=         1 AccDes= 0.00D+00
 HarFok:  IExCor=  205 AccDes= 0.00D+00 IRadAn=         1 IDoV= 1
 ScaDFX=  1.000000  1.000000  1.000000  1.000000
 FoFCou: FMM=F IPFlag=           0 FMFlag=      100000 FMFlg1=           0
         NFxFlg=           0 DoJE=T BraDBF=F KetDBF=T FulRan=T
         Omega=  0.000000  0.000000  1.000000  0.000000  0.000000 ICntrl=     500 IOpCl=  0
         NMat0=    1 NMatS0=    1 NMatT0=    0 NMatD0=    1 NMtDS0=    0 NMtDT0=    0
         I1Cent=           4 NGrid=           0.
 Petite list used in FoFCou.
 Initial guess orbital symmetries:
       Occupied  (A) (A) (A) (A) (A) (A) (A) (A) (A) (A) (A) (A)
                 (A) (A) (A) (A) (A) (A) (A) (A) (A) (A) (A) (A)
                 (A) (A) (A) (A) (A) (A) (A) (A) (A) (A) (A) (A)
                 (A) (A) (A) (A) (A) (A) (A) (A) (A) (A) (A) (A)
                 (A) (A) (A) (A) (A) (A) (A)
       Virtual   (A) (A) (A) (A) (A) (A) (A) (A) (A) (A) (A) (A)
                 (A) (A) (A) (A) (A) (A) (A) (A) (A) (A) (A) (A)
                 (A) (A) (A) (A) (A) (A) (A) (A) (A) (A) (A) (A)
                 (A) (A) (A) (A) (A) (A) (A) (A) (A) (A) (A) (A)
                 (A) (A) (A) (A) (A) (A) (A) (A) (A) (A) (A) (A)
                 (A) (A) (A) (A) (A) (A) (A) (A) (A) (A) (A) (A)
                 (A) (A) (A) (A) (A) (A) (A) (A) (A) (A) (A) (A)
                 (A) (A) (A) (A) (A) (A) (A) (A) (A) (A) (A) (A)
                 (A) (A) (A) (A) (A) (A) (A) (A) (A) (A) (A) (A)
                 (A) (A) (A) (A) (A) (A) (A) (A) (A) (A) (A) (A)
                 (A) (A) (A) (A) (A) (A) (A) (A) (A) (A) (A) (A)
                 (A) (A) (A) (A) (A) (A) (A) (A) (A) (A) (A) (A)
                 (A) (A) (A) (A) (A) (A) (A) (A) (A) (A) (A) (A)
                 (A) (A) (A) (A) (A) (A) (A) (A) (A) (A) (A) (A)
                 (A) (A) (A) (A) (A) (A) (A) (A) (A) (A) (A) (A)
                 (A) (A) (A) (A) (A) (A) (A) (A)
 The electronic state of the initial guess is 1-A.
 Requested convergence on RMS density matrix=1.00D-08 within 128 cycles.
 Requested convergence on MAX density matrix=1.00D-06.
 Requested convergence on             energy=1.00D-06.
 No special actions if energy rises.
 Integral accuracy reduced to 1.0D-05 until final iterations.
 Initial convergence to 1.0D-05 achieved.  Increase integral accuracy.
 SCF Done:  E(RHF) =  -650.222708475     A.U. after   22 cycles
             Convg  =    0.4030D-08             -V/T =  1.9944

 **********************************************************************

            Population analysis using the SCF density.

 **********************************************************************

 Orbital symmetries:
       Occupied  (A) (A) (A) (A) (A) (A) (A) (A) (A) (A) (A) (A)
                 (A) (A) (A) (A) (A) (A) (A) (A) (A) (A) (A) (A)
                 (A) (A) (A) (A) (A) (A) (A) (A) (A) (A) (A) (A)
                 (A) (A) (A) (A) (A) (A) (A) (A) (A) (A) (A) (A)
                 (A) (A) (A) (A) (A) (A) (A)
       Virtual   (A) (A) (A) (A) (A) (A) (A) (A) (A) (A) (A) (A)
                 (A) (A) (A) (A) (A) (A) (A) (A) (A) (A) (A) (A)
                 (A) (A) (A) (A) (A) (A) (A) (A) (A) (A) (A) (A)
                 (A) (A) (A) (A) (A) (A) (A) (A) (A) (A) (A) (A)
                 (A) (A) (A) (A) (A) (A) (A) (A) (A) (A) (A) (A)
                 (A) (A) (A) (A) (A) (A) (A) (A) (A) (A) (A) (A)
                 (A) (A) (A) (A) (A) (A) (A) (A) (A) (A) (A) (A)
                 (A) (A) (A) (A) (A) (A) (A) (A) (A) (A) (A) (A)
                 (A) (A) (A) (A) (A) (A) (A) (A) (A) (A) (A) (A)
                 (A) (A) (A) (A) (A) (A) (A) (A) (A) (A) (A) (A)
                 (A) (A) (A) (A) (A) (A) (A) (A) (A) (A) (A) (A)
                 (A) (A) (A) (A) (A) (A) (A) (A) (A) (A) (A) (A)
                 (A) (A) (A) (A) (A) (A) (A) (A) (A) (A) (A) (A)
                 (A) (A) (A) (A) (A) (A) (A) (A) (A) (A) (A) (A)
                 (A) (A) (A) (A) (A) (A) (A) (A) (A) (A) (A) (A)
                 (A) (A) (A) (A) (A) (A) (A) (A)
 The electronic state is 1-A.
 Alpha  occ. eigenvalues --  -20.76469 -20.56426 -11.36730 -11.35315 -11.29819
 Alpha  occ. eigenvalues --  -11.25847 -11.25642 -11.25052 -11.24242 -11.23568
 Alpha  occ. eigenvalues --  -11.23483 -11.23440 -11.22162 -11.21916 -11.21550
 Alpha  occ. eigenvalues --   -1.92971  -1.38981  -1.24019  -1.16962  -1.14354
 Alpha  occ. eigenvalues --   -1.14037  -1.03418  -1.00924  -1.00179  -0.97304
 Alpha  occ. eigenvalues --   -0.94212  -0.88230  -0.85059  -0.81224  -0.80831
 Alpha  occ. eigenvalues --   -0.72607  -0.68895  -0.66853  -0.64242  -0.63170
 Alpha  occ. eigenvalues --   -0.62413  -0.61409  -0.60965  -0.60115  -0.59273
 Alpha  occ. eigenvalues --   -0.58070  -0.57261  -0.56126  -0.53844  -0.52195
 Alpha  occ. eigenvalues --   -0.49707  -0.49282  -0.47960  -0.47539  -0.45946
 Alpha  occ. eigenvalues --   -0.41801  -0.40626  -0.33402  -0.32845  -0.21024
 Alpha virt. eigenvalues --    0.05409   0.10850   0.13550   0.14255   0.16000
 Alpha virt. eigenvalues --    0.16461   0.16572   0.17987   0.18559   0.19489
 Alpha virt. eigenvalues --    0.21014   0.21484   0.22089   0.22993   0.23158
 Alpha virt. eigenvalues --    0.24548   0.25580   0.26209   0.27414   0.30367
 Alpha virt. eigenvalues --    0.34007   0.34392   0.36019   0.37125   0.37814
 Alpha virt. eigenvalues --    0.39158   0.39998   0.41667   0.42414   0.44751
 Alpha virt. eigenvalues --    0.45225   0.46551   0.46918   0.47192   0.49030
 Alpha virt. eigenvalues --    0.50191   0.52333   0.53644   0.55504   0.57272
 Alpha virt. eigenvalues --    0.58429   0.59038   0.59810   0.60928   0.61258
 Alpha virt. eigenvalues --    0.61504   0.63337   0.64223   0.64620   0.65247
 Alpha virt. eigenvalues --    0.65511   0.66962   0.67232   0.69179   0.70957
 Alpha virt. eigenvalues --    0.71775   0.73057   0.73973   0.74705   0.76317
 Alpha virt. eigenvalues --    0.78006   0.78695   0.79126   0.79258   0.80199
 Alpha virt. eigenvalues --    0.80743   0.81038   0.81864   0.82557   0.83174
 Alpha virt. eigenvalues --    0.83719   0.84006   0.84779   0.85203   0.85425
 Alpha virt. eigenvalues --    0.86786   0.87047   0.87566   0.88285   0.89825
 Alpha virt. eigenvalues --    0.90934   0.91995   0.92596   0.97018   0.97952
 Alpha virt. eigenvalues --    0.98644   1.01806   1.03004   1.07328   1.09509
 Alpha virt. eigenvalues --    1.09788   1.10756   1.12299   1.12560   1.16590
 Alpha virt. eigenvalues --    1.19183   1.19845   1.21390   1.22854   1.24368
 Alpha virt. eigenvalues --    1.25581   1.30063   1.31505   1.32384   1.34974
 Alpha virt. eigenvalues --    1.38854   1.45100   1.47411   1.51625   1.55467
 Alpha virt. eigenvalues --    1.87262   1.97816   2.42676   2.55314   2.56631
 Alpha virt. eigenvalues --    2.57545   2.58915   2.59985   2.61381   2.62340
 Alpha virt. eigenvalues --    2.64711   2.65467   2.65731   2.66929   2.69421
 Alpha virt. eigenvalues --    2.70922   2.72777   2.87081   2.94585   2.96514
 Alpha virt. eigenvalues --    2.98130   2.98470   3.06111   3.07721   3.08829
 Alpha virt. eigenvalues --    3.12336   3.14848   3.15851   3.17559   3.20087
 Alpha virt. eigenvalues --    3.22075   3.23682   3.24646   3.26311   3.27963
 Alpha virt. eigenvalues --    3.29102   3.31687   3.33707   3.34569   3.37084
 Alpha virt. eigenvalues --    3.39142   3.41748   3.44220   3.48408   3.49855
 Alpha virt. eigenvalues --    3.52511   3.55161   3.56012   3.58833   3.62057
 Alpha virt. eigenvalues --    3.64551   3.65799   3.68716   3.70385   3.74386
 Alpha virt. eigenvalues --    3.78446   3.92435   5.42384   5.45101   5.46268
 Alpha virt. eigenvalues --    5.49419   5.50574   5.80297  24.28842  24.47500
 Alpha virt. eigenvalues --   24.51490  24.52175  24.60122  24.64026  24.66518
 Alpha virt. eigenvalues --   24.74373  24.76605  24.81433  24.82711  24.84560
 Alpha virt. eigenvalues --   25.06002  51.50412  51.61245
          Condensed to atoms (all electrons):
              1          2          3          4          5          6
     1  C    5.023706   0.465386  -0.057111  -0.036052  -0.071991   0.497787
     2  C    0.465386   5.157558   0.484657  -0.061538  -0.031383  -0.106283
     3  C   -0.057111   0.484657   5.000091   0.426963  -0.042876  -0.009050
     4  C   -0.036052  -0.061538   0.426963   5.284399   0.456090  -0.104386
     5  C   -0.071991  -0.031383  -0.042876   0.456090   5.014335   0.495898
     6  C    0.497787  -0.106283  -0.009050  -0.104386   0.495898   5.094043
     7  H    0.392865  -0.037175   0.005891  -0.000173   0.005818  -0.039994
     8  H   -0.034412   0.393864  -0.046347   0.005143  -0.000392   0.004919
     9  H   -0.000392   0.004308  -0.062216   0.402168  -0.031267   0.005518
    10  H    0.005956  -0.000176   0.005459  -0.040600   0.394525  -0.038746
    11  H   -0.044333   0.008155  -0.001749   0.008355  -0.045128   0.400702
    12  C    0.009044  -0.056821   0.270270  -0.117208   0.007054   0.002247
    13  C   -0.000434  -0.004865  -0.047546   0.007059  -0.000516   0.000066
    14  H    0.000105   0.001995  -0.002207   0.000614   0.000033  -0.000054
    15  C   -0.000027   0.000477   0.005392  -0.000171   0.000009   0.000000
    16  O    0.000000   0.000016  -0.000142   0.000001   0.000000   0.000000
    17  C    0.000002   0.000096   0.002615   0.000029   0.000002   0.000000
    18  C    0.000008  -0.001243  -0.012780   0.004539   0.000054   0.000005
    19  H    0.000000  -0.000018  -0.000844   0.000543   0.000011   0.000000
    20  H   -0.000023  -0.000025  -0.001939  -0.006880  -0.000176   0.000025
    21  H   -0.000070   0.001853   0.002237   0.000073  -0.000318  -0.000043
    22  C    0.000000  -0.000002   0.000078   0.000006   0.000000   0.000000
    23  H    0.000000   0.000000  -0.000010  -0.000002   0.000000   0.000000
    24  H    0.000000   0.000000   0.000039  -0.000013   0.000000   0.000000
    25  H    0.000000   0.000000  -0.000004   0.000000   0.000000   0.000000
    26  C    0.000000   0.000007  -0.000003  -0.000020   0.000000   0.000000
    27  H    0.000000  -0.000008  -0.000038  -0.000018   0.000000   0.000000
    28  H    0.000000  -0.000001   0.000000   0.000000   0.000000   0.000000
    29  H    0.000000   0.000000   0.000008   0.000001   0.000000   0.000000
    30  O   -0.000135   0.001013  -0.028825   0.003791   0.000015   0.000006
    31  H    0.000257   0.003909   0.002237  -0.000103  -0.000016  -0.000059
              7          8          9         10         11         12
     1  C    0.392865  -0.034412  -0.000392   0.005956  -0.044333   0.009044
     2  C   -0.037175   0.393864   0.004308  -0.000176   0.008155  -0.056821
     3  C    0.005891  -0.046347  -0.062216   0.005459  -0.001749   0.270270
     4  C   -0.000173   0.005143   0.402168  -0.040600   0.008355  -0.117208
     5  C    0.005818  -0.000392  -0.031267   0.394525  -0.045128   0.007054
     6  C   -0.039994   0.004919   0.005518  -0.038746   0.400702   0.002247
     7  H    0.524681  -0.003834   0.000033  -0.000221  -0.004507  -0.000387
     8  H   -0.003834   0.512029  -0.000277   0.000024  -0.000191  -0.005314
     9  H    0.000033  -0.000277   0.550038  -0.004260  -0.000220  -0.006015
    10  H   -0.000221   0.000024  -0.004260   0.529851  -0.004538  -0.000473
    11  H   -0.004507  -0.000191  -0.000220  -0.004538   0.532030  -0.000043
    12  C   -0.000387  -0.005314  -0.006015  -0.000473  -0.000043   6.459938
    13  C    0.000032   0.004875   0.000870   0.000003   0.000000  -0.044675
    14  H    0.000003  -0.001354  -0.000015   0.000000   0.000000  -0.079691
    15  C    0.000000   0.000133  -0.000083   0.000000   0.000000  -0.074923
    16  O    0.000000  -0.000059   0.000000   0.000000   0.000000   0.008119
    17  C    0.000000  -0.000081   0.000221   0.000000   0.000000   0.157195
    18  C   -0.000001   0.000036  -0.000302   0.000001   0.000000  -0.145885
    19  H    0.000000   0.000000  -0.000073   0.000000   0.000000   0.002149
    20  H    0.000000  -0.000063  -0.001319   0.000001   0.000000   0.024662
    21  H    0.000001  -0.000037  -0.000289   0.000002   0.000000  -0.242263
    22  C    0.000000   0.000001   0.000000   0.000000   0.000000   0.000346
    23  H    0.000000   0.000000   0.000000   0.000000   0.000000  -0.000135
    24  H    0.000000   0.000000  -0.000005   0.000000   0.000000   0.001201
    25  H    0.000000   0.000000   0.000000   0.000000   0.000000  -0.000200
    26  C    0.000000  -0.000001  -0.000030   0.000000   0.000000  -0.011307
    27  H    0.000000   0.000000  -0.000003   0.000000   0.000000   0.003851
    28  H    0.000000   0.000000   0.000001   0.000000   0.000000  -0.000417
    29  H    0.000000   0.000000   0.000000   0.000000   0.000000   0.000271
    30  O    0.000002   0.000104   0.004563  -0.000007   0.000000  -0.109100
    31  H   -0.000001  -0.000578  -0.000035   0.000001   0.000000  -0.094644
             13         14         15         16         17         18
     1  C   -0.000434   0.000105  -0.000027   0.000000   0.000002   0.000008
     2  C   -0.004865   0.001995   0.000477   0.000016   0.000096  -0.001243
     3  C   -0.047546  -0.002207   0.005392  -0.000142   0.002615  -0.012780
     4  C    0.007059   0.000614  -0.000171   0.000001   0.000029   0.004539
     5  C   -0.000516   0.000033   0.000009   0.000000   0.000002   0.000054
     6  C    0.000066  -0.000054   0.000000   0.000000   0.000000   0.000005
     7  H    0.000032   0.000003   0.000000   0.000000   0.000000  -0.000001
     8  H    0.004875  -0.001354   0.000133  -0.000059  -0.000081   0.000036
     9  H    0.000870  -0.000015  -0.000083   0.000000   0.000221  -0.000302
    10  H    0.000003   0.000000   0.000000   0.000000   0.000000   0.000001
    11  H    0.000000   0.000000   0.000000   0.000000   0.000000   0.000000
    12  C   -0.044675  -0.079691  -0.074923   0.008119   0.157195  -0.145885
    13  C    6.122786   0.391995   0.095675  -0.110489  -0.304511   0.149772
    14  H    0.391995   0.543308  -0.035298   0.002568   0.003669  -0.000605
    15  C    0.095675  -0.035298   5.172674   0.558117  -0.131409   0.029808
    16  O   -0.110489   0.002568   0.558117   8.148713  -0.132086   0.006935
    17  C   -0.304511   0.003669  -0.131409  -0.132086   7.082048  -0.341770
    18  C    0.149772  -0.000605   0.029808   0.006935  -0.341770   7.759092
    19  H    0.000529   0.000317   0.011302  -0.000075  -0.063636   0.492956
    20  H    0.004387  -0.013182  -0.020829  -0.000134  -0.040160   0.325386
    21  H   -0.000853  -0.005361  -0.021561  -0.000075  -0.036690  -0.420326
    22  C    0.007575   0.001195  -0.051313   0.005682   0.126046  -0.096664
    23  H    0.002171  -0.000564  -0.002373   0.002524  -0.055769   0.005031
    24  H   -0.000468  -0.000288   0.002124  -0.000038  -0.058307   0.006161
    25  H   -0.000213  -0.000006   0.001734   0.000216  -0.060116   0.008818
    26  C    0.006287  -0.000756  -0.105079   0.003603   0.153450  -0.184364
    27  H   -0.000681   0.000138  -0.007672   0.000431  -0.042195   0.002488
    28  H    0.001761   0.000007   0.001118   0.009251  -0.043099   0.011378
    29  H   -0.000707   0.000017   0.009964  -0.000260  -0.045718  -0.005337
    30  O   -0.109263   0.005376   0.042140  -0.000240  -0.027858  -0.998751
    31  H    0.366860  -0.046218  -0.029091   0.003276   0.007862  -0.004331
             19         20         21         22         23         24
     1  C    0.000000  -0.000023  -0.000070   0.000000   0.000000   0.000000
     2  C   -0.000018  -0.000025   0.001853  -0.000002   0.000000   0.000000
     3  C   -0.000844  -0.001939   0.002237   0.000078  -0.000010   0.000039
     4  C    0.000543  -0.006880   0.000073   0.000006  -0.000002  -0.000013
     5  C    0.000011  -0.000176  -0.000318   0.000000   0.000000   0.000000
     6  C    0.000000   0.000025  -0.000043   0.000000   0.000000   0.000000
     7  H    0.000000   0.000000   0.000001   0.000000   0.000000   0.000000
     8  H    0.000000  -0.000063  -0.000037   0.000001   0.000000   0.000000
     9  H   -0.000073  -0.001319  -0.000289   0.000000   0.000000  -0.000005
    10  H    0.000000   0.000001   0.000002   0.000000   0.000000   0.000000
    11  H    0.000000   0.000000   0.000000   0.000000   0.000000   0.000000
    12  C    0.002149   0.024662  -0.242263   0.000346  -0.000135   0.001201
    13  C    0.000529   0.004387  -0.000853   0.007575   0.002171  -0.000468
    14  H    0.000317  -0.013182  -0.005361   0.001195  -0.000564  -0.000288
    15  C    0.011302  -0.020829  -0.021561  -0.051313  -0.002373   0.002124
    16  O   -0.000075  -0.000134  -0.000075   0.005682   0.002524  -0.000038
    17  C   -0.063636  -0.040160  -0.036690   0.126046  -0.055769  -0.058307
    18  C    0.492956   0.325386  -0.420326  -0.096664   0.005031   0.006161
    19  H    0.473975  -0.057290  -0.066455   0.006432  -0.000645  -0.001006
    20  H   -0.057290   0.866735   0.180770  -0.041571   0.004213   0.012441
    21  H   -0.066455   0.180770   0.718378  -0.008739   0.000639   0.003073
    22  C    0.006432  -0.041571  -0.008739   5.397117   0.393186   0.385522
    23  H   -0.000645   0.004213   0.000639   0.393186   0.479137  -0.017682
    24  H   -0.001006   0.012441   0.003073   0.385522  -0.017682   0.501270
    25  H   -0.000135   0.001250   0.000300   0.388543  -0.020877  -0.025113
    26  C   -0.011987   0.023826   0.054491  -0.083926   0.006896   0.006561
    27  H    0.000547  -0.002054  -0.003405   0.010467  -0.000431  -0.000663
    28  H    0.000455  -0.000658  -0.001546  -0.001700  -0.000085  -0.000575
    29  H    0.004182  -0.000330  -0.002058  -0.008295  -0.000329   0.000484
    30  O   -0.045245  -0.448653   0.322154   0.015295  -0.001180  -0.003737
    31  H   -0.000211   0.006144   0.009222  -0.000650   0.000111   0.000091
             25         26         27         28         29         30
     1  C    0.000000   0.000000   0.000000   0.000000   0.000000  -0.000135
     2  C    0.000000   0.000007  -0.000008  -0.000001   0.000000   0.001013
     3  C   -0.000004  -0.000003  -0.000038   0.000000   0.000008  -0.028825
     4  C    0.000000  -0.000020  -0.000018   0.000000   0.000001   0.003791
     5  C    0.000000   0.000000   0.000000   0.000000   0.000000   0.000015
     6  C    0.000000   0.000000   0.000000   0.000000   0.000000   0.000006
     7  H    0.000000   0.000000   0.000000   0.000000   0.000000   0.000002
     8  H    0.000000  -0.000001   0.000000   0.000000   0.000000   0.000104
     9  H    0.000000  -0.000030  -0.000003   0.000001   0.000000   0.004563
    10  H    0.000000   0.000000   0.000000   0.000000   0.000000  -0.000007
    11  H    0.000000   0.000000   0.000000   0.000000   0.000000   0.000000
    12  C   -0.000200  -0.011307   0.003851  -0.000417   0.000271  -0.109100
    13  C   -0.000213   0.006287  -0.000681   0.001761  -0.000707  -0.109263
    14  H   -0.000006  -0.000756   0.000138   0.000007   0.000017   0.005376
    15  C    0.001734  -0.105079  -0.007672   0.001118   0.009964   0.042140
    16  O    0.000216   0.003603   0.000431   0.009251  -0.000260  -0.000240
    17  C   -0.060116   0.153450  -0.042195  -0.043099  -0.045718  -0.027858
    18  C    0.008818  -0.184364   0.002488   0.011378  -0.005337  -0.998751
    19  H   -0.000135  -0.011987   0.000547   0.000455   0.004182  -0.045245
    20  H    0.001250   0.023826  -0.002054  -0.000658  -0.000330  -0.448653
    21  H    0.000300   0.054491  -0.003405  -0.001546  -0.002058   0.322154
    22  C    0.388543  -0.083926   0.010467  -0.001700  -0.008295   0.015295
    23  H   -0.020877   0.006896  -0.000431  -0.000085  -0.000329  -0.001180
    24  H   -0.025113   0.006561  -0.000663  -0.000575   0.000484  -0.003737
    25  H    0.520251  -0.000304   0.000290  -0.000569   0.000241  -0.000413
    26  C   -0.000304   5.443530   0.376623   0.377847   0.391447   0.008445
    27  H    0.000290   0.376623   0.557802  -0.019473  -0.031231  -0.000974
    28  H   -0.000569   0.377847  -0.019473   0.473128  -0.023737  -0.000212
    29  H    0.000241   0.391447  -0.031231  -0.023737   0.536593   0.000298
    30  O   -0.000413   0.008445  -0.000974  -0.000212   0.000298   9.740384
    31  H    0.000016   0.001120  -0.000496  -0.000121   0.000025   0.003614
             31
     1  C    0.000257
     2  C    0.003909
     3  C    0.002237
     4  C   -0.000103
     5  C   -0.000016
     6  C   -0.000059
     7  H   -0.000001
     8  H   -0.000578
     9  H   -0.000035
    10  H    0.000001
    11  H    0.000000
    12  C   -0.094644
    13  C    0.366860
    14  H   -0.046218
    15  C   -0.029091
    16  O    0.003276
    17  C    0.007862
    18  C   -0.004331
    19  H   -0.000211
    20  H    0.006144
    21  H    0.009222
    22  C   -0.000650
    23  H    0.000111
    24  H    0.000091
    25  H    0.000016
    26  C    0.001120
    27  H   -0.000496
    28  H   -0.000121
    29  H    0.000025
    30  O    0.003614
    31  H    0.549277
 Mulliken atomic charges:
              1
     1  C   -0.150136
     2  C   -0.223756
     3  C    0.107752
     4  C   -0.232611
     5  C   -0.149782
     6  C   -0.202605
     7  H    0.156966
     8  H    0.171810
     9  H    0.139082
    10  H    0.153198
    11  H    0.151466
    12  C    0.043151
    13  C   -0.537481
    14  H    0.234257
    15  C    0.549163
    16  O   -0.505854
    17  C   -0.149830
    18  C   -0.590109
    19  H    0.254221
    20  H    0.185444
    21  H    0.516896
    22  C   -0.444632
    23  H    0.206175
    24  H    0.188929
    25  H    0.186293
    26  C   -0.456356
    27  H    0.156707
    28  H    0.217246
    29  H    0.174471
    30  O   -0.372606
    31  H    0.222531
 Sum of Mulliken atomic charges =   0.00000
 Mulliken charges with hydrogens summed into heavy atoms:
              1
     1  C    0.006829
     2  C   -0.051946
     3  C    0.107752
     4  C   -0.093529
     5  C    0.003417
     6  C   -0.051139
    12  C    0.043151
    13  C   -0.080693
    15  C    0.549163
    16  O   -0.505854
    17  C   -0.149830
    18  C   -0.335888
    22  C    0.136765
    26  C    0.092068
    30  O    0.329734
 Sum of Mulliken charges with hydrogens summed into heavy atoms =   0.00000
 Electronic spatial extent (au):  <R**2>=           3909.1713
 Charge=              0.0000 electrons
 Dipole moment (field-independent basis, Debye):
    X=             -2.0469    Y=             -4.6724    Z=              1.0697  Tot=              5.2121
 Quadrupole moment (field-independent basis, Debye-Ang):
   XX=            -99.8650   YY=            -92.1733   ZZ=            -96.1983
   XY=             13.3170   XZ=              0.7259   YZ=             -3.7241
 Traceless Quadrupole moment (field-independent basis, Debye-Ang):
   XX=             -3.7861   YY=              3.9056   ZZ=             -0.1194
   XY=             13.3170   XZ=              0.7259   YZ=             -3.7241
 Octapole moment (field-independent basis, Debye-Ang**2):
  XXX=             -9.8993  YYY=            -24.8412  ZZZ=              3.6106  XYY=             23.7572
  XXY=            -34.8542  XXZ=             -1.7095  XZZ=            -26.8997  YZZ=              1.5354
  YYZ=             -0.0928  XYZ=              5.1977
 Hexadecapole moment (field-independent basis, Debye-Ang**3):
 XXXX=          -4258.4418 YYYY=           -807.0285 ZZZZ=           -298.7685 XXXY=            104.3349
 XXXZ=             20.4795 YYYX=             63.4766 YYYZ=            -10.3069 ZZZX=             -3.5367
 ZZZY=             -3.8704 XXYY=           -887.0920 XXZZ=           -831.6088 YYZZ=           -188.4936
 XXYZ=            -16.0937 YYXZ=              6.1199 ZZXY=             -9.1260
 N-N= 1.002425721205D+03 E-N=-3.524533605121D+03  KE= 6.538753655610D+02
 Calling FoFJK, ICntrl=      2127 FMM=F ISym2X=0 I1Cent= 0 IOpClX= 0 NMat=1 NMatS=1 NMatT=0.
 ***** Axes restored to original set *****
 -------------------------------------------------------------------
 Center     Atomic                   Forces (Hartrees/Bohr)
 Number     Number              X              Y              Z
 -------------------------------------------------------------------
      1        6           0.000772133   -0.006122420    0.000353774
      2        6          -0.005366935   -0.022517146    0.000668312
      3        6           0.086177615    0.015093291   -0.002212414
      4        6          -0.011416653    0.018687957    0.001809652
      5        6           0.000803039    0.008579109    0.000510715
      6        6          -0.020690493   -0.000128686   -0.000092363
      7        1           0.010245865    0.016885746   -0.000038567
      8        1          -0.012922453    0.018034095   -0.000841966
      9        1          -0.010815075   -0.015804571   -0.001069306
     10        1           0.009798635   -0.016839236   -0.000046346
     11        1           0.019823690    0.000072670   -0.000141041
     12        6          -0.180977501   -0.222662186   -0.060099329
     13        6           0.015546028    0.047000546    0.002731449
     14        1           0.004180783   -0.013028336   -0.005357835
     15        6           0.025913667   -0.054505510    0.011339698
     16        8          -0.036093701    0.049371975   -0.012877047
     17        6          -0.005129024   -0.013774387    0.028802274
     18        6           1.082098882    0.251044444   -0.250771687
     19        1          -0.017061894    0.007109655    0.014861705
     20        1           0.199425406    0.047333857   -0.253006576
     21        1          -0.134695918    0.030255518    0.214779624
     22        6          -0.004638334    0.001864863    0.004255804
     23        1           0.003693001   -0.002649662   -0.007311066
     24        1           0.001688908    0.003234170   -0.004808666
     25        1           0.008077656   -0.001704108   -0.001121964
     26        6          -0.002793559   -0.012135573   -0.007615668
     27        1          -0.002208293   -0.000101329    0.011874801
     28        1           0.004370228   -0.002944408    0.004769361
     29        1           0.002828347    0.008026348    0.000686893
     30        8          -1.034569107   -0.128935370    0.304902411
     31        1           0.003935057   -0.008741318    0.005065368
 -------------------------------------------------------------------
 Cartesian Forces:  Max     1.082098882 RMS     0.172207400

 GradGradGradGradGradGradGradGradGradGradGradGradGradGradGradGradGradGrad
 Berny optimization.
 Internal  Forces:  Max     0.547202433 RMS     0.066660737
 Search for a local minimum.
 Step number   1 out of a maximum of  186
 All quantities printed in internal units (Hartrees-Bohrs-Radians)
 Mixed Optimization -- RFO/linear search
 Second derivative matrix not updated -- first step.
     Eigenvalues ---    0.00237   0.00237   0.00237   0.00237   0.00255
     Eigenvalues ---    0.00751   0.01557   0.01564   0.02152   0.02153
     Eigenvalues ---    0.02154   0.02155   0.02155   0.02155   0.02156
     Eigenvalues ---    0.02157   0.03893   0.04198   0.04601   0.04972
     Eigenvalues ---    0.05686   0.05720   0.05720   0.05720   0.05720
     Eigenvalues ---    0.06505   0.06698   0.08757   0.09244   0.09811
     Eigenvalues ---    0.10951   0.12910   0.13951   0.15968   0.16000
     Eigenvalues ---    0.16000   0.16000   0.16000   0.16000   0.16000
     Eigenvalues ---    0.16000   0.16000   0.16000   0.16000   0.16000
     Eigenvalues ---    0.17251   0.22000   0.22000   0.22155   0.23132
     Eigenvalues ---    0.23486   0.23753   0.25000   0.25000   0.25000
     Eigenvalues ---    0.27335   0.28090   0.28489   0.28519   0.28519
     Eigenvalues ---    0.28519   0.28519   0.33709   0.33718   0.33720
     Eigenvalues ---    0.33725   0.33726   0.34201   0.37230   0.37230
     Eigenvalues ---    0.37230   0.37230   0.37230   0.37230   0.37230
     Eigenvalues ---    0.37230   0.37230   0.42116   0.42305   0.46412
     Eigenvalues ---    0.46453   0.46466   0.46497   0.48804   0.76326
     Eigenvalues ---    0.80209   1.356081000.000001000.000001000.00000
     Eigenvalues --- 1000.000001000.000001000.000001000.000001000.00000
     Eigenvalues --- 1000.000001000.000001000.000001000.000001000.00000
     Eigenvalues --- 1000.000001000.000001000.000001000.000001000.00000
     Eigenvalues --- 1000.000001000.000001000.000001000.000001000.00000
     Eigenvalues --- 1000.000001000.000001000.000001000.000001000.00000
     Eigenvalues --- 1000.000001000.000001000.000001000.000001000.00000
     Eigenvalues --- 1000.000001000.000001000.000001000.000001000.00000
     Eigenvalues --- 1000.000001000.000001000.000001000.000001000.00000
     Eigenvalues --- 1000.000001000.000001000.000001000.000001000.00000
     Eigenvalues --- 1000.000001000.000001000.000001000.000001000.00000
     Eigenvalues --- 1000.000001000.000001000.000001000.000001000.00000
     Eigenvalues --- 1000.000001000.000001000.000001000.000001000.00000
     Eigenvalues --- 1000.000001000.000001000.000001000.000001000.00000
     Eigenvalues --- 1000.000001000.000001000.000001000.000001000.00000
     Eigenvalues --- 1000.000001000.000001000.000001000.000001000.00000
     Eigenvalues --- 1000.000001000.000001000.000001000.000001000.00000
     Eigenvalues --- 1000.000001000.000001000.000001000.000001000.00000
     Eigenvalues --- 1000.000001000.000001000.00000
 RFO step:  Lambda=-5.11223996D-01 EMin= 2.36824077D-03
 Linear search not attempted -- first point.
 Maximum step size (   0.300) exceeded in Quadratic search.
    -- Step size scaled by   0.484
 Iteration  1 RMS(Cart)=  0.03160123 RMS(Int)=  0.00075726
 Iteration  2 RMS(Cart)=  0.00057488 RMS(Int)=  0.00047008
 Iteration  3 RMS(Cart)=  0.00000197 RMS(Int)=  0.00047008
 Iteration  4 RMS(Cart)=  0.00000000 RMS(Int)=  0.00047008
 Variable       Old X    -DE/DX   Delta X   Delta X   Delta X     New X
                                 (Linear)    (Quad)   (Total)
    R1        2.63647  -0.00991   0.00000  -0.00491  -0.00491   2.63156
    R2        2.63584  -0.00709   0.00000  -0.00366  -0.00366   2.63219
    R3        2.07796  -0.01975   0.00000  -0.01126  -0.01126   2.06670
    R4        2.63562   0.00640   0.00000   0.00331   0.00332   2.63894
    R5        2.07805  -0.02208   0.00000  -0.01259  -0.01259   2.06545
    R6        2.63697   0.00864   0.00000   0.00443   0.00443   2.64140
    R7        2.91018  -0.06641   0.00000  -0.04035  -0.04035   2.86983
    R8        2.63584  -0.01084   0.00000  -0.00538  -0.00538   2.63046
    R9        2.07809  -0.01910   0.00000  -0.01089  -0.01089   2.06720
   R10        2.63643  -0.00772   0.00000  -0.00397  -0.00397   2.63246
   R11        2.07825  -0.01948   0.00000  -0.01111  -0.01111   2.06713
   R12        2.07795  -0.01982   0.00000  -0.01131  -0.01131   2.06665
   R13        2.91018  -0.00768   0.00000  -0.00601  -0.00597   2.90421
   R14        2.37803   0.18581   0.00000   0.07546   0.07544   2.45347
   R15        2.02201   0.01011   0.00000   0.00554   0.00554   2.02754
   R16        2.91018   0.01589   0.00000  -0.00300  -0.00295   2.90723
   R17        2.02201   0.00733   0.00000   0.00401   0.00401   2.02602
   R18        2.37803  -0.06243   0.00000  -0.02300  -0.02300   2.35503
   R19        2.91018   0.02327   0.00000   0.00403   0.00404   2.91422
   R20        2.91018   0.00980   0.00000   0.01145   0.01141   2.92158
   R21        2.91018   0.01257   0.00000   0.00764   0.00764   2.91782
   R22        2.91018   0.00799   0.00000   0.00485   0.00485   2.91503
   R23        2.02201   0.00152   0.00000   0.00083   0.00083   2.02284
   R24        2.02201   0.15917   0.00000   0.03204   0.02945   2.05145
   R25        2.02201   0.33936   0.00000   0.13127   0.13227   2.15428
   R26        1.96335   0.54720   0.00000   0.13910   0.13963   2.10298
   R27        1.96610   0.32419   0.00000   0.14598   0.14786   2.11396
   R28        1.69689   0.14902   0.00000   0.03099   0.02982   1.72671
   R29        2.02201   0.00622   0.00000   0.00341   0.00341   2.02541
   R30        2.02201   0.00480   0.00000   0.00263   0.00263   2.02464
   R31        2.02201   0.00676   0.00000   0.00370   0.00370   2.02571
   R32        2.02201   0.01044   0.00000   0.00572   0.00572   2.02773
   R33        2.02201   0.00575   0.00000   0.00315   0.00315   2.02516
   R34        2.02201   0.00850   0.00000   0.00466   0.00466   2.02666
    A1        2.09437   0.00600   0.00000   0.00373   0.00373   2.09810
    A2        2.09435  -0.00345   0.00000  -0.00219  -0.00219   2.09216
    A3        2.09447  -0.00255   0.00000  -0.00154  -0.00154   2.09293
    A4        2.09455   0.00139   0.00000   0.00107   0.00107   2.09562
    A5        2.09406  -0.00296   0.00000  -0.00217  -0.00217   2.09189
    A6        2.09458   0.00157   0.00000   0.00110   0.00110   2.09568
    A7        2.09429  -0.01115   0.00000  -0.00676  -0.00676   2.08753
    A8        2.09462   0.00479   0.00000   0.00288   0.00288   2.09750
    A9        2.09427   0.00636   0.00000   0.00388   0.00388   2.09815
   A10        2.09429   0.00369   0.00000   0.00259   0.00259   2.09688
   A11        2.09407  -0.00033   0.00000  -0.00020  -0.00020   2.09386
   A12        2.09483  -0.00336   0.00000  -0.00238  -0.00238   2.09244
   A13        2.09448   0.00376   0.00000   0.00224   0.00224   2.09672
   A14        2.09459  -0.00194   0.00000  -0.00117  -0.00117   2.09343
   A15        2.09411  -0.00181   0.00000  -0.00108  -0.00107   2.09304
   A16        2.09440  -0.00369   0.00000  -0.00287  -0.00287   2.09152
   A17        2.09453   0.00192   0.00000   0.00149   0.00149   2.09603
   A18        2.09426   0.00176   0.00000   0.00138   0.00138   2.09564
   A19        2.09241   0.03743   0.00000   0.02021   0.02024   2.11266
   A20        2.09836  -0.00737   0.00000  -0.00827  -0.00824   2.09012
   A21        2.09241  -0.03006   0.00000  -0.01193  -0.01201   2.08041
   A22        1.91063  -0.00178   0.00000   0.00427   0.00445   1.91509
   A23        1.91063   0.06478   0.00000   0.02050   0.02043   1.93107
   A24        1.91063  -0.02172   0.00000  -0.00531  -0.00539   1.90525
   A25        1.91063  -0.03098   0.00000  -0.01279  -0.01290   1.89773
   A26        1.91063   0.00425   0.00000  -0.00074  -0.00081   1.90982
   A27        1.91063  -0.01456   0.00000  -0.00592  -0.00588   1.90475
   A28        2.09836  -0.03624   0.00000  -0.00924  -0.00919   2.08917
   A29        2.09241   0.07938   0.00000   0.02286   0.02276   2.11517
   A30        2.09241  -0.04313   0.00000  -0.01362  -0.01357   2.07885
   A31        1.91063   0.01642   0.00000   0.00808   0.00801   1.91864
   A32        1.91063   0.00080   0.00000   0.00048   0.00050   1.91113
   A33        1.91063  -0.01416   0.00000  -0.00768  -0.00764   1.90299
   A34        1.91063  -0.01168   0.00000  -0.00541  -0.00544   1.90519
   A35        1.91063   0.00291   0.00000   0.00232   0.00242   1.91305
   A36        1.91063   0.00570   0.00000   0.00221   0.00218   1.91281
   A37        1.91063   0.02924   0.00000   0.01349   0.01326   1.92389
   A38        1.91063   0.05871   0.00000  -0.00173  -0.00042   1.91021
   A39        1.91063   0.09347   0.00000   0.02640   0.02474   1.93538
   A40        2.18205  -0.05521   0.00000  -0.02159  -0.02165   2.16040
   A41        1.91063  -0.02181   0.00000  -0.00974  -0.01003   1.90061
   A42        1.91063  -0.02703   0.00000  -0.01874  -0.01844   1.89220
   A43        2.18641   0.02152   0.00000   0.00470   0.00436   2.19077
   A44        1.91063  -0.13258   0.00000  -0.00968  -0.00960   1.90103
   A45        1.91063   0.00671   0.00000   0.00482   0.00481   1.91544
   A46        1.91063   0.00341   0.00000   0.00248   0.00248   1.91311
   A47        1.91063   0.00349   0.00000   0.00251   0.00250   1.91314
   A48        1.91063  -0.00493   0.00000  -0.00354  -0.00355   1.90709
   A49        1.91063  -0.00565   0.00000  -0.00413  -0.00413   1.90650
   A50        1.91063  -0.00303   0.00000  -0.00214  -0.00214   1.90849
   A51        1.91063   0.00775   0.00000   0.00560   0.00559   1.91623
   A52        1.91063   0.00415   0.00000   0.00299   0.00299   1.91362
   A53        1.91063  -0.00115   0.00000  -0.00084  -0.00084   1.90979
   A54        1.91063  -0.00561   0.00000  -0.00401  -0.00402   1.90661
   A55        1.91063  -0.00339   0.00000  -0.00245  -0.00245   1.90818
   A56        1.91063  -0.00175   0.00000  -0.00129  -0.00129   1.90935
   A57        2.35672  -0.07491   0.00000  -0.01820  -0.01843   2.33828
   A58        1.93089   0.11792   0.00000   0.03010   0.02730   1.95819
   A59        1.83651   0.11514   0.00000   0.02908   0.03086   1.86737
   A60        2.24351  -0.22327   0.00000  -0.04940  -0.04877   2.19473
    D1        0.00056   0.00000   0.00000   0.00000   0.00000   0.00056
    D2        3.14078   0.00025   0.00000   0.00022   0.00022   3.14100
    D3       -3.14112  -0.00011   0.00000  -0.00010  -0.00010  -3.14122
    D4       -0.00091   0.00014   0.00000   0.00012   0.00012  -0.00078
    D5        0.00026  -0.00001   0.00000  -0.00001  -0.00001   0.00025
    D6        3.14140  -0.00013   0.00000  -0.00012  -0.00012   3.14129
    D7       -3.14124   0.00010   0.00000   0.00009   0.00009  -3.14115
    D8       -0.00010  -0.00002   0.00000  -0.00002  -0.00002  -0.00011
    D9       -0.00099   0.00000   0.00000   0.00000   0.00000  -0.00099
   D10        3.14093  -0.00060   0.00000  -0.00055  -0.00054   3.14038
   D11       -3.14120  -0.00024   0.00000  -0.00022  -0.00022  -3.14142
   D12        0.00072  -0.00084   0.00000  -0.00077  -0.00077  -0.00005
   D13        0.00060   0.00002   0.00000   0.00001   0.00001   0.00061
   D14       -3.14153   0.00037   0.00000   0.00033   0.00033  -3.14120
   D15       -3.14132   0.00062   0.00000   0.00056   0.00056  -3.14076
   D16       -0.00026   0.00097   0.00000   0.00088   0.00088   0.00062
   D17        0.00000  -0.00036   0.00000  -0.00038  -0.00042  -0.00042
   D18        3.14159   0.00001   0.00000   0.00004   0.00008  -3.14151
   D19       -3.14127  -0.00096   0.00000  -0.00093  -0.00097   3.14095
   D20        0.00033  -0.00059   0.00000  -0.00051  -0.00047  -0.00014
   D21        0.00023  -0.00003   0.00000  -0.00003  -0.00003   0.00020
   D22       -3.14158   0.00014   0.00000   0.00013   0.00013  -3.14145
   D23       -3.14083  -0.00039   0.00000  -0.00035  -0.00035  -3.14118
   D24        0.00054  -0.00021   0.00000  -0.00019  -0.00019   0.00035
   D25       -0.00066   0.00003   0.00000   0.00003   0.00003  -0.00063
   D26        3.14138   0.00015   0.00000   0.00013   0.00013   3.14152
   D27        3.14116  -0.00015   0.00000  -0.00013  -0.00013   3.14102
   D28        0.00001  -0.00003   0.00000  -0.00003  -0.00003  -0.00002
   D29        1.25384  -0.01252   0.00000  -0.00559  -0.00564   1.24820
   D30       -2.93495  -0.01187   0.00000  -0.00609  -0.00605  -2.94100
   D31       -0.84055  -0.00334   0.00000  -0.00404  -0.00406  -0.84461
   D32       -1.88775  -0.01288   0.00000  -0.00601  -0.00614  -1.89389
   D33        0.20665  -0.01224   0.00000  -0.00651  -0.00655   0.20009
   D34        2.30104  -0.00370   0.00000  -0.00446  -0.00456   2.29648
   D35        3.03541   0.05012   0.00000   0.03655   0.03541   3.07082
   D36       -2.01788  -0.08656   0.00000  -0.03265  -0.03169  -2.04957
   D37        1.77962   0.00841   0.00000  -0.01889  -0.01866   1.76096
   D38       -0.10618   0.05049   0.00000   0.03698   0.03590  -0.07028
   D39        1.12372  -0.08619   0.00000  -0.03223  -0.03120   1.09252
   D40       -1.36197   0.00878   0.00000  -0.01846  -0.01817  -1.38014
   D41        2.93536  -0.01205   0.00000  -0.00634  -0.00648   2.92888
   D42       -0.20623  -0.01426   0.00000  -0.00725  -0.00744  -0.21367
   D43       -1.25343   0.00648   0.00000   0.00361   0.00348  -1.24995
   D44        1.88817   0.00427   0.00000   0.00270   0.00252   1.89069
   D45        0.84097  -0.01620   0.00000  -0.00876  -0.00877   0.83220
   D46       -2.30062  -0.01841   0.00000  -0.00968  -0.00973  -2.31035
   D47        0.11188  -0.00788   0.00000  -0.00431  -0.00442   0.10746
   D48       -1.98252  -0.00412   0.00000  -0.00294  -0.00297  -1.98548
   D49        2.20627  -0.00293   0.00000  -0.00123  -0.00127   2.20500
   D50       -3.02972  -0.01008   0.00000  -0.00523  -0.00537  -3.03509
   D51        1.15907  -0.00632   0.00000  -0.00385  -0.00392   1.15515
   D52       -0.93532  -0.00513   0.00000  -0.00214  -0.00222  -0.93754
   D53        3.06707  -0.01408   0.00000  -0.01064  -0.01053   3.05654
   D54       -1.12172   0.01307   0.00000  -0.01537  -0.01495  -1.13667
   D55        0.97267  -0.05611   0.00000  -0.01211  -0.01168   0.96099
   D56        0.01848   0.03431   0.00000   0.02732   0.02663   0.04511
   D57       -1.12172  -0.01019   0.00000  -0.00841  -0.00837  -1.13009
   D58        0.97267   0.01696   0.00000  -0.01314  -0.01279   0.95988
   D59        3.06707  -0.05223   0.00000  -0.00989  -0.00952   3.05754
   D60        2.11288   0.03820   0.00000   0.02954   0.02878   2.14166
   D61        0.97267  -0.00857   0.00000  -0.00760  -0.00756   0.96511
   D62        3.06707   0.01857   0.00000  -0.01233  -0.01199   3.05508
   D63       -1.12172  -0.05061   0.00000  -0.00907  -0.00872  -1.13044
   D64       -2.07591   0.03981   0.00000   0.03036   0.02959  -2.04633
   D65        0.11809   0.00944   0.00000   0.00537   0.00533   0.12341
   D66        2.21248   0.00960   0.00000   0.00551   0.00546   2.21795
   D67       -1.97631   0.01011   0.00000   0.00594   0.00590  -1.97041
   D68       -1.97631  -0.00402   0.00000  -0.00150  -0.00144  -1.97775
   D69        0.11809  -0.00386   0.00000  -0.00137  -0.00131   0.11678
   D70        2.21248  -0.00335   0.00000  -0.00093  -0.00087   2.21161
   D71        2.21248  -0.00392   0.00000  -0.00239  -0.00240   2.21008
   D72       -1.97631  -0.00376   0.00000  -0.00225  -0.00226  -1.97857
   D73        0.11809  -0.00325   0.00000  -0.00181  -0.00183   0.11626
   D74       -1.02111  -0.00616   0.00000  -0.00344  -0.00343  -1.02454
   D75        1.07329  -0.00575   0.00000  -0.00309  -0.00307   1.07022
   D76       -3.11550  -0.00606   0.00000  -0.00335  -0.00334  -3.11884
   D77        1.07329   0.00706   0.00000   0.00317   0.00316   1.07645
   D78       -3.11550   0.00748   0.00000   0.00352   0.00352  -3.11198
   D79       -1.02111   0.00717   0.00000   0.00326   0.00325  -1.01785
   D80       -3.11550  -0.00196   0.00000  -0.00068  -0.00069  -3.11619
   D81       -1.02110  -0.00155   0.00000  -0.00033  -0.00034  -1.02144
   D82        1.07329  -0.00186   0.00000  -0.00059  -0.00060   1.07269
   D83       -0.02360  -0.05826   0.00000  -0.04720  -0.04566  -0.06926
   D84       -3.05774  -0.00178   0.00000  -0.00346  -0.00292  -3.06065
         Item               Value     Threshold  Converged?
 Maximum Force            0.547202     0.000450     NO 
 RMS     Force            0.066661     0.000300     NO 
 Maximum Displacement     0.133560     0.001800     NO 
 RMS     Displacement     0.031458     0.001200     NO 
 Predicted change in Energy=-2.100533D-01
 GradGradGradGradGradGradGradGradGradGradGradGradGradGradGradGradGradGrad

                          Input orientation:                          
 ---------------------------------------------------------------------
 Center     Atomic      Atomic             Coordinates (Angstroms)
 Number     Number       Type             X           Y           Z
 ---------------------------------------------------------------------
      1          6           0       -3.777929   -2.495924   -0.001294
      2          6           0       -2.385373   -2.494850    0.001276
      3          6           0       -1.686598   -1.285790    0.004203
      4          6           0       -2.393226   -0.079789    0.003333
      5          6           0       -3.785192   -0.085256    0.000302
      6          6           0       -4.479771   -1.292775   -0.001636
      7          1           0       -4.321899   -3.444695   -0.003231
      8          1           0       -1.840520   -3.442355    0.002092
      9          1           0       -1.851848    0.870769    0.005239
     10          1           0       -4.334932    0.860450   -0.000502
[...]
 Alpha virt. eigenvalues --    0.89956   0.90489   0.91564   0.93044   0.95228
 Alpha virt. eigenvalues --    0.95795   1.00190   1.02223   1.04312   1.08210
 Alpha virt. eigenvalues --    1.09347   1.10280   1.11267   1.13170   1.14343
 Alpha virt. eigenvalues --    1.15288   1.16010   1.17259   1.21936   1.23357
 Alpha virt. eigenvalues --    1.27713   1.29561   1.31456   1.32500   1.33729
 Alpha virt. eigenvalues --    1.36845   1.44116   1.46414   1.50875   1.55116
 Alpha virt. eigenvalues --    1.89366   1.99811   2.53806   2.55343   2.58532
 Alpha virt. eigenvalues --    2.59088   2.61117   2.61836   2.62151   2.63313
 Alpha virt. eigenvalues --    2.64198   2.65736   2.67204   2.67693   2.68267
 Alpha virt. eigenvalues --    2.69384   2.73922   2.86081   2.92280   2.95447
 Alpha virt. eigenvalues --    2.96816   2.99924   3.03655   3.05816   3.07944
 Alpha virt. eigenvalues --    3.11917   3.12926   3.17246   3.20090   3.22141
 Alpha virt. eigenvalues --    3.23710   3.24146   3.26341   3.27922   3.29550
 Alpha virt. eigenvalues --    3.30939   3.33102   3.33796   3.34617   3.38273
 Alpha virt. eigenvalues --    3.39077   3.40141   3.42555   3.44143   3.48161
 Alpha virt. eigenvalues --    3.50782   3.51675   3.53097   3.54702   3.57875
 Alpha virt. eigenvalues --    3.61464   3.62929   3.66795   3.68244   3.70541
 Alpha virt. eigenvalues --    3.71917   3.87001   5.45130   5.48256   5.51652
 Alpha virt. eigenvalues --    5.53810   5.55103   5.66880  24.25359  24.45255
 Alpha virt. eigenvalues --   24.49043  24.49954  24.59948  24.64607  24.66858
 Alpha virt. eigenvalues --   24.68978  24.77002  24.78403  24.79735  24.85741
 Alpha virt. eigenvalues --   25.04426  51.55155  51.62056
          Condensed to atoms (all electrons):
              1          2          3          4          5          6
     1  C    5.112697   0.428483  -0.079150  -0.015192  -0.080372   0.488339
     2  C    0.428483   5.146838   0.488628  -0.157685  -0.019755  -0.077434
     3  C   -0.079150   0.488628   5.496367   0.262778  -0.052906  -0.013141
     4  C   -0.015192  -0.157685   0.262778   5.284952   0.453578  -0.084024
     5  C   -0.080372  -0.019755  -0.052906   0.453578   5.089742   0.479512
     6  C    0.488339  -0.077434  -0.013141  -0.084024   0.479512   4.989455
     7  H    0.401051  -0.038288   0.006040  -0.000798   0.006064  -0.041247
     8  H   -0.043866   0.374349  -0.029122   0.013002  -0.001385   0.005062
     9  H    0.000004   0.003446  -0.049582   0.398687  -0.034219   0.005537
    10  H    0.005800  -0.000459   0.004976  -0.036583   0.401242  -0.039982
    11  H   -0.040985   0.006905  -0.001344   0.007728  -0.041594   0.398972
    12  C    0.006954  -0.077819   0.384848  -0.078525   0.006849   0.000344
    13  C   -0.001008   0.011738  -0.077413  -0.027469   0.000185   0.000085
    14  H    0.000058  -0.000808  -0.019973   0.014630   0.000201  -0.000001
    15  C    0.000009   0.000266   0.010635  -0.002449  -0.000011   0.000000
    16  O    0.000000   0.000005  -0.000430   0.000007   0.000000   0.000000
    17  C    0.000000   0.000067  -0.002313   0.000051   0.000000   0.000000
    18  C    0.000002  -0.000016   0.001407  -0.000060   0.000001   0.000000
    19  H    0.000000  -0.000003  -0.000033   0.000002   0.000001   0.000000
    20  H    0.000000   0.000001   0.000055  -0.000095  -0.000001   0.000000
    21  H    0.000020   0.000020   0.000093   0.000321  -0.000038  -0.000005
    22  C    0.000000   0.000000   0.000004   0.000001   0.000000   0.000000
    23  H    0.000000   0.000000  -0.000002   0.000000   0.000000   0.000000
    24  H    0.000000   0.000000  -0.000001   0.000000   0.000000   0.000000
    25  H    0.000000   0.000000   0.000005   0.000000   0.000000   0.000000
    26  C    0.000000   0.000057   0.000140  -0.000050   0.000000   0.000000
    27  H    0.000005  -0.000440  -0.000559   0.000245  -0.000002   0.000000
    28  H    0.000000  -0.000002   0.000033   0.000000   0.000000   0.000000
    29  H    0.000000   0.000001  -0.000033   0.000001   0.000000   0.000000
    30  O   -0.000003  -0.001016  -0.002784   0.002037   0.000107  -0.000001
    31  H    0.000077  -0.001454  -0.007069   0.003795  -0.000116  -0.000013
              7          8          9         10         11         12
     1  C    0.401051  -0.043866   0.000004   0.005800  -0.040985   0.006954
     2  C   -0.038288   0.374349   0.003446  -0.000459   0.006905  -0.077819
     3  C    0.006040  -0.029122  -0.049582   0.004976  -0.001344   0.384848
     4  C   -0.000798   0.013002   0.398687  -0.036583   0.007728  -0.078525
     5  C    0.006064  -0.001385  -0.034219   0.401242  -0.041594   0.006849
     6  C   -0.041247   0.005062   0.005537  -0.039982   0.398972   0.000344
     7  H    0.505726  -0.004199   0.000018  -0.000215  -0.004477  -0.000266
     8  H   -0.004199   0.485887  -0.000166   0.000032  -0.000137   0.019897
     9  H    0.000018  -0.000166   0.496547  -0.004140  -0.000186  -0.005099
    10  H   -0.000215   0.000032  -0.004140   0.505500  -0.004192  -0.000242
    11  H   -0.004477  -0.000137  -0.000186  -0.004192   0.508145  -0.000026
    12  C   -0.000266   0.019897  -0.005099  -0.000242  -0.000026   5.488238
    13  C    0.000012  -0.001374   0.003251   0.000001  -0.000001   0.093827
    14  H    0.000000   0.000253   0.004092   0.000051   0.000001  -0.018383
    15  C    0.000000  -0.000180  -0.000255  -0.000001   0.000000  -0.089366
    16  O    0.000000   0.000000  -0.000028   0.000000   0.000000   0.003252
    17  C    0.000000  -0.000011  -0.000105   0.000000   0.000000   0.009993
    18  C    0.000000  -0.000002   0.000033   0.000000   0.000000  -0.006117
    19  H    0.000000   0.000000   0.000004   0.000000   0.000000   0.000108
    20  H    0.000000  -0.000001  -0.000144   0.000000   0.000000  -0.000090
    21  H    0.000000   0.000099  -0.000026   0.000001   0.000000   0.002089
    22  C    0.000000   0.000000   0.000000   0.000000   0.000000   0.000030
    23  H    0.000000   0.000000   0.000000   0.000000   0.000000   0.000041
    24  H    0.000000   0.000000   0.000000   0.000000   0.000000   0.000014
    25  H    0.000000   0.000000   0.000000   0.000000   0.000000  -0.000077
    26  C    0.000000  -0.000080  -0.000009   0.000000   0.000000  -0.012028
    27  H    0.000000   0.000400   0.000005   0.000000   0.000000   0.020666
    28  H    0.000000  -0.000001   0.000000   0.000000   0.000000  -0.000350
    29  H    0.000000   0.000001   0.000000   0.000000   0.000000   0.000209
    30  O    0.000000  -0.000005   0.000634  -0.000001   0.000000  -0.007122
    31  H   -0.000001   0.000222  -0.000083   0.000011   0.000000  -0.015972
             13         14         15         16         17         18
     1  C   -0.001008   0.000058   0.000009   0.000000   0.000000   0.000002
     2  C    0.011738  -0.000808   0.000266   0.000005   0.000067  -0.000016
     3  C   -0.077413  -0.019973   0.010635  -0.000430  -0.002313   0.001407
     4  C   -0.027469   0.014630  -0.002449   0.000007   0.000051  -0.000060
     5  C    0.000185   0.000201  -0.000011   0.000000   0.000000   0.000001
     6  C    0.000085  -0.000001   0.000000   0.000000   0.000000   0.000000
     7  H    0.000012   0.000000   0.000000   0.000000   0.000000   0.000000
     8  H   -0.001374   0.000253  -0.000180   0.000000  -0.000011  -0.000002
     9  H    0.003251   0.004092  -0.000255  -0.000028  -0.000105   0.000033
    10  H    0.000001   0.000051  -0.000001   0.000000   0.000000   0.000000
    11  H   -0.000001   0.000001   0.000000   0.000000   0.000000   0.000000
    12  C    0.093827  -0.018383  -0.089366   0.003252   0.009993  -0.006117
    13  C    6.249030   0.336404   0.105231  -0.122215  -0.191012   0.000560
    14  H    0.336404   0.532271  -0.056844   0.003910   0.007342  -0.002713
    15  C    0.105231  -0.056844   5.124303   0.554455  -0.027134  -0.039592
    16  O   -0.122215   0.003910   0.554455   8.146437  -0.130010   0.005062
    17  C   -0.191012   0.007342  -0.027134  -0.130010   6.703893   0.035221
    18  C    0.000560  -0.002713  -0.039592   0.005062   0.035221   5.279342
    19  H   -0.000278   0.000060   0.008615  -0.000281  -0.049863   0.388021
    20  H   -0.002549   0.000835  -0.004261   0.000066  -0.065261   0.402106
    21  H   -0.001141   0.000477  -0.000549   0.000009  -0.003548  -0.032084
    22  C    0.004904  -0.001008  -0.079502   0.005703   0.166384  -0.092011
    23  H   -0.000330   0.000058  -0.006169   0.001100  -0.043810  -0.001878
    24  H   -0.000254   0.000017   0.011503  -0.000143  -0.051263  -0.005381
    25  H    0.001309  -0.000145  -0.004962   0.010270  -0.038202   0.007201
    26  C    0.001280   0.000402  -0.110150   0.003702   0.183514  -0.085525
    27  H   -0.003329   0.000634  -0.001940   0.000082  -0.044144  -0.003964
    28  H    0.001095  -0.000047  -0.002063   0.004901  -0.045833   0.007716
    29  H   -0.000293   0.000036   0.008882  -0.000344  -0.050114  -0.005558
    30  O   -0.001190  -0.002656   0.001187  -0.000016  -0.074679   0.110865
    31  H    0.356174  -0.004246  -0.060899   0.014208   0.009481  -0.001272
             19         20         21         22         23         24
     1  C    0.000000   0.000000   0.000020   0.000000   0.000000   0.000000
     2  C   -0.000003   0.000001   0.000020   0.000000   0.000000   0.000000
     3  C   -0.000033   0.000055   0.000093   0.000004  -0.000002  -0.000001
     4  C    0.000002  -0.000095   0.000321   0.000001   0.000000   0.000000
     5  C    0.000001  -0.000001  -0.000038   0.000000   0.000000   0.000000
     6  C    0.000000   0.000000  -0.000005   0.000000   0.000000   0.000000
     7  H    0.000000   0.000000   0.000000   0.000000   0.000000   0.000000
     8  H    0.000000  -0.000001   0.000099   0.000000   0.000000   0.000000
     9  H    0.000004  -0.000144  -0.000026   0.000000   0.000000   0.000000
    10  H    0.000000   0.000000   0.000001   0.000000   0.000000   0.000000
    11  H    0.000000   0.000000   0.000000   0.000000   0.000000   0.000000
    12  C    0.000108  -0.000090   0.002089   0.000030   0.000041   0.000014
    13  C   -0.000278  -0.002549  -0.001141   0.004904  -0.000330  -0.000254
    14  H    0.000060   0.000835   0.000477  -0.001008   0.000058   0.000017
    15  C    0.008615  -0.004261  -0.000549  -0.079502  -0.006169   0.011503
    16  O   -0.000281   0.000066   0.000009   0.005703   0.001100  -0.000143
    17  C   -0.049863  -0.065261  -0.003548   0.166384  -0.043810  -0.051263
    18  C    0.388021   0.402106  -0.032084  -0.092011  -0.001878  -0.005381
    19  H    0.572747  -0.036849  -0.005698   0.005226  -0.000962   0.004174
    20  H   -0.036849   0.539321   0.005027   0.002820   0.004255  -0.000906
    21  H   -0.005698   0.005027   0.358732  -0.000338   0.000007  -0.000020
    22  C    0.005226   0.002820  -0.000338   5.374095   0.385907   0.390789
    23  H   -0.000962   0.004255   0.000007   0.385907   0.540113  -0.030965
    24  H    0.004174  -0.000906  -0.000020   0.390789  -0.030965   0.546935
    25  H   -0.000173  -0.000351   0.000008   0.386929  -0.022978  -0.025475
    26  C   -0.011295   0.008945   0.006222  -0.092623   0.008349  -0.006310
    27  H    0.000225  -0.000076   0.001559   0.007025  -0.000257   0.000056
    28  H   -0.000304  -0.000203  -0.000024  -0.002478  -0.000124  -0.000689
    29  H    0.003961  -0.000109  -0.000337  -0.004907  -0.000163   0.002134
    30  O   -0.041174  -0.037783   0.260227   0.004999  -0.000111  -0.000136
    31  H    0.000073  -0.000331   0.000003  -0.000397  -0.000025   0.000021
             25         26         27         28         29         30
     1  C    0.000000   0.000000   0.000005   0.000000   0.000000  -0.000003
     2  C    0.000000   0.000057  -0.000440  -0.000002   0.000001  -0.001016
     3  C    0.000005   0.000140  -0.000559   0.000033  -0.000033  -0.002784
     4  C    0.000000  -0.000050   0.000245   0.000000   0.000001   0.002037
     5  C    0.000000   0.000000  -0.000002   0.000000   0.000000   0.000107
     6  C    0.000000   0.000000   0.000000   0.000000   0.000000  -0.000001
     7  H    0.000000   0.000000   0.000000   0.000000   0.000000   0.000000
     8  H    0.000000  -0.000080   0.000400  -0.000001   0.000001  -0.000005
     9  H    0.000000  -0.000009   0.000005   0.000000   0.000000   0.000634
    10  H    0.000000   0.000000   0.000000   0.000000   0.000000  -0.000001
    11  H    0.000000   0.000000   0.000000   0.000000   0.000000   0.000000
    12  C   -0.000077  -0.012028   0.020666  -0.000350   0.000209  -0.007122
    13  C    0.001309   0.001280  -0.003329   0.001095  -0.000293  -0.001190
    14  H   -0.000145   0.000402   0.000634  -0.000047   0.000036  -0.002656
    15  C   -0.004962  -0.110150  -0.001940  -0.002063   0.008882   0.001187
    16  O    0.010270   0.003702   0.000082   0.004901  -0.000344  -0.000016
    17  C   -0.038202   0.183514  -0.044144  -0.045833  -0.050114  -0.074679
    18  C    0.007201  -0.085525  -0.003964   0.007716  -0.005558   0.110865
    19  H   -0.000173  -0.011295   0.000225  -0.000304   0.003961  -0.041174
    20  H   -0.000351   0.008945  -0.000076  -0.000203  -0.000109  -0.037783
    21  H    0.000008   0.006222   0.001559  -0.000024  -0.000337   0.260227
    22  C    0.386929  -0.092623   0.007025  -0.002478  -0.004907   0.004999
    23  H   -0.022978   0.008349  -0.000257  -0.000124  -0.000163  -0.000111
    24  H   -0.025475  -0.006310   0.000056  -0.000689   0.002134  -0.000136
    25  H    0.472050  -0.003694  -0.000249   0.002856  -0.000580  -0.000196
    26  C   -0.003694   5.445115   0.377444   0.391134   0.384786   0.009728
    27  H   -0.000249   0.377444   0.480055  -0.020463  -0.024376   0.004318
    28  H    0.002856   0.391134  -0.020463   0.490520  -0.026079   0.000101
    29  H   -0.000580   0.384786  -0.024376  -0.026079   0.549068  -0.000024
    30  O   -0.000196   0.009728   0.004318   0.000101  -0.000024   8.513181
    31  H   -0.000055  -0.000752   0.000357  -0.000080   0.000048   0.000725
             31
     1  C    0.000077
     2  C   -0.001454
     3  C   -0.007069
     4  C    0.003795
     5  C   -0.000116
     6  C   -0.000013
     7  H   -0.000001
     8  H    0.000222
     9  H   -0.000083
    10  H    0.000011
    11  H    0.000000
    12  C   -0.015972
    13  C    0.356174
    14  H   -0.004246
    15  C   -0.060899
    16  O    0.014208
    17  C    0.009481
    18  C   -0.001272
    19  H    0.000073
    20  H   -0.000331
    21  H    0.000003
    22  C   -0.000397
    23  H   -0.000025
    24  H    0.000021
    25  H   -0.000055
    26  C   -0.000752
    27  H    0.000357
    28  H   -0.000080
    29  H    0.000048
    30  O    0.000725
    31  H    0.460411
 Mulliken atomic charges:
              1
     1  C   -0.182924
     2  C   -0.085623
     3  C   -0.320154
     4  C   -0.038885
     5  C   -0.207083
     6  C   -0.111458
     7  H    0.170580
     8  H    0.181322
     9  H    0.181784
    10  H    0.168200
    11  H    0.171192
    12  C    0.274123
    13  C   -0.735230
    14  H    0.205092
    15  C    0.661241
    16  O   -0.499701
    17  C   -0.298643
    18  C    0.038636
    19  H    0.163699
    20  H    0.185580
    21  H    0.408896
    22  C   -0.461548
    23  H    0.167945
    24  H    0.165900
    25  H    0.216511
    26  C   -0.498301
    27  H    0.206726
    28  H    0.200385
    29  H    0.163792
    30  O   -0.739212
    31  H    0.247158
 Sum of Mulliken atomic charges =   0.00000
 Mulliken charges with hydrogens summed into heavy atoms:
              1
     1  C   -0.012344
     2  C    0.095699
     3  C   -0.320154
     4  C    0.142899
     5  C   -0.038883
     6  C    0.059734
    12  C    0.274123
    13  C   -0.282980
    15  C    0.661241
    16  O   -0.499701
    17  C   -0.298643
    18  C    0.387916
    22  C    0.088808
    26  C    0.072602
    30  O   -0.330316
 Sum of Mulliken charges with hydrogens summed into heavy atoms =   0.00000
 Electronic spatial extent (au):  <R**2>=           4049.8282
 Charge=              0.0000 electrons
 Dipole moment (field-independent basis, Debye):
    X=              1.9489    Y=             -3.0280    Z=             -1.7677  Tot=              4.0114
 Quadrupole moment (field-independent basis, Debye-Ang):
   XX=            -81.5041   YY=            -97.2318   ZZ=            -89.4259
   XY=             10.4328   XZ=              3.1155   YZ=             -7.2647
 Traceless Quadrupole moment (field-independent basis, Debye-Ang):
   XX=              7.8832   YY=             -7.8446   ZZ=             -0.0387
   XY=             10.4328   XZ=              3.1155   YZ=             -7.2647
 Octapole moment (field-independent basis, Debye-Ang**2):
  XXX=             48.0828  YYY=            -31.2910  ZZZ=             -9.4724  XYY=              0.2723
  XXY=            -39.4370  XXZ=            -11.2865  XZZ=              2.8214  YZZ=              0.7586
  YYZ=             -1.3181  XYZ=             -2.3565
 Hexadecapole moment (field-independent basis, Debye-Ang**3):
 XXXX=          -4081.9614 YYYY=           -611.8984 ZZZZ=           -532.7405 XXXY=             11.9924
 XXXZ=             -6.1340 YYYX=             60.1429 YYYZ=            -12.9469 ZZZX=              0.4072
 ZZZY=             -9.4622 XXYY=           -928.7631 XXZZ=           -780.7805 YYZZ=           -200.4388
 XXYZ=            -37.5831 YYXZ=             17.2323 ZZXY=             -4.6032
 N-N= 9.637909833661D+02 E-N=-3.449946957715D+03  KE= 6.515479549906D+02
 1|1|UNPC-DESKTOP-K2VF0AK|FOpt|RHF|6-311G|C13H16O2|MELIH|27-Nov-2024|0|
 |# opt hf/6-311g geom=connectivity||Title Card Required||0,1|C,-3.8864
 559274,-2.0488609898,1.3023268767|C,-2.5063873746,-2.1818863023,1.3168
 99217|C,-1.7255474475,-1.7816395699,0.22871714|C,-2.3763579202,-1.2125
 390939,-0.8760168843|C,-3.7491599603,-1.06147973,-0.890975409|C,-4.504
 9247593,-1.48571265,0.1978218573|H,-4.4689098835,-2.3708781501,2.14035
 7189|H,-2.0046075803,-2.6016277934,2.1627718434|H,-1.8105562698,-0.875
 1373254,-1.7182158295|H,-4.2324562982,-0.6189461315,-1.7372868353|H,-5
 .5697764346,-1.3711651211,0.1819366758|C,-0.2803103509,-2.0100362316,0
 .3580692365|C,0.5397150613,-1.9356056681,-0.8989017734|H,0.279513885,-
 1.110256909,-1.5507328992|C,2.0269678195,-1.9399530216,-0.6430616799|O
 ,2.6993659613,-2.8729919026,-1.0491944237|C,2.709053213,-0.8050492366,
 0.1272838739|C,1.9165770468,0.507376681,0.0669873426|H,2.483697122,1.2
 796721897,0.569747579|H,1.7734955989,0.8182344623,-0.9550774721|H,0.58
 25879553,0.3788097872,1.5673863404|C,4.0928896026,-0.5384765394,-0.490
 7712624|H,4.009323861,-0.172491047,-1.5068493277|H,4.6257504331,0.2022
 369054,0.0923121064|H,4.6743257304,-1.4445577285,-0.5141914521|C,2.883
 3995758,-1.2689006966,1.5906661466|H,1.940698928,-1.543737096,2.037811
 0555|H,3.5296020603,-2.1336061499,1.6275307302|H,3.3409521556,-0.47955
 68284,2.1764248292|O,0.599328009,0.4289307916,0.6228278039|H,0.3293423
 776,-2.8517582542,-1.4454074948||Version=IA32W-G09RevA.02|State=1-A|HF
 =-651.0819823|RMSD=9.359e-009|RMSF=8.643e-006|Dipole=-0.8773566,1.2694
 698,0.3308861|Quadrupole=4.6835443,-7.0607326,2.3771883,8.4143581,3.65
 77396,-2.4461701|PG=C01 [X(C13H16O2)]||@


 LAWS OF PROGRAMMING DEFINITION:  A WORKING PROGRAM
                                  IS ONE THAT HAS
                                  ONLY UNOBSERVED
                                  BUGS.
 Job cpu time:  0 days  1 hours  9 minutes 33.0 seconds.
 File lengths (MBytes):  RWF=     42 Int=      0 D2E=      0 Chk=      6 Scr=      1
 Normal termination of Gaussian 09 at Wed Nov 27 23:35:59 2024.
